 written on 28Apr2018 at 11:39:36 
           5
         151
    1    1    2    1    1    1    1    1    2    1    1    1    1    1    1
    1    1    1    1    2    1    1    1    1    1    1    1    1    1    1
    1    2    1    1    1    1    1    1    1    1    1    1    1    1    2
    1    1    1    1    1    1    1    1    1    1    1    2    1    1    1
    1    1    1    1    1    1    1    1    1    2    1    1    1    1    1
    1    1    1    1    1    1    2    1    1    1    1    1    1    1    1
    1    1    1    1    2    1    1    1    1    1    1    1    1    1    1
    1    2    1    1    1    1    1    1    1    1    1    1    1    1    2
    1    1    1    1    1    1    1    1    1    1    1    2    1    1    1
    1    1    1    1    1    1    1    2    1    1    1    1    1    2    1
    1
   -7   -4    0    1    1   -0.000921    0.000000
   -7   -4    0    2    1   -0.000041   -0.000005
   -7   -4    0    3    1    0.000252   -0.000018
   -7   -4    0    4    1   -0.000000    0.000000
   -7   -4    0    5    1    0.000000   -0.000000
   -7   -4    0    1    2    0.000060   -0.000008
   -7   -4    0    2    2   -0.000346   -0.000000
   -7   -4    0    3    2    0.000757   -0.000153
   -7   -4    0    4    2    0.000000    0.000000
   -7   -4    0    5    2    0.000000    0.000000
   -7   -4    0    1    3   -0.000414   -0.000030
   -7   -4    0    2    3   -0.000479   -0.000097
   -7   -4    0    3    3    0.001228   -0.000000
   -7   -4    0    4    3   -0.000000    0.000000
   -7   -4    0    5    3    0.000000   -0.000000
   -7   -4    0    1    4   -0.000000    0.000000
   -7   -4    0    2    4    0.000000    0.000000
   -7   -4    0    3    4    0.000000   -0.000000
   -7   -4    0    4    4   -0.000078   -0.000000
   -7   -4    0    5    4   -0.000021   -0.000000
   -7   -4    0    1    5   -0.000000   -0.000000
   -7   -4    0    2    5    0.000000   -0.000000
   -7   -4    0    3    5   -0.000000    0.000000
   -7   -4    0    4    5    0.000009   -0.000000
   -7   -4    0    5    5   -0.000054    0.000000
   -7   -3    0    1    1    0.001228    0.000000
   -7   -3    0    2    1    0.000088    0.000011
   -7   -3    0    3    1   -0.000418    0.000030
   -7   -3    0    4    1    0.000000   -0.000000
   -7   -3    0    5    1    0.000000   -0.000000
   -7   -3    0    1    2   -0.000486    0.000063
   -7   -3    0    2    2   -0.000345   -0.000000
   -7   -3    0    3    2   -0.000331    0.000067
   -7   -3    0    4    2    0.000000    0.000000
   -7   -3    0    5    2    0.000000    0.000000
   -7   -3    0    1    3    0.000248    0.000018
   -7   -3    0    2    3   -0.000104   -0.000021
   -7   -3    0    3    3   -0.000921    0.000000
   -7   -3    0    4    3    0.000000   -0.000000
   -7   -3    0    5    3   -0.000000    0.000000
   -7   -3    0    1    4    0.000000    0.000000
   -7   -3    0    2    4    0.000000   -0.000000
   -7   -3    0    3    4   -0.000000    0.000000
   -7   -3    0    4    4   -0.000078   -0.000000
   -7   -3    0    5    4    0.000019    0.000000
   -7   -3    0    1    5    0.000000    0.000000
   -7   -3    0    2    5    0.000000    0.000000
   -7   -3    0    3    5   -0.000000   -0.000000
   -7   -3    0    4    5   -0.000011    0.000000
   -7   -3    0    5    5   -0.000054    0.000000
   -6   -6    0    1    1   -0.006122    0.000000
   -6   -6    0    2    1    0.001590    0.000205
   -6   -6    0    3    1   -0.001012    0.000072
   -6   -6    0    4    1   -0.000000   -0.000000
   -6   -6    0    5    1   -0.000000    0.000000
   -6   -6    0    1    2    0.001590   -0.000205
   -6   -6    0    2    2    0.000406    0.000000
   -6   -6    0    3    2    0.000236   -0.000048
   -6   -6    0    4    2   -0.000000    0.000000
   -6   -6    0    5    2    0.000000   -0.000000
   -6   -6    0    1    3   -0.001012   -0.000072
   -6   -6    0    2    3    0.000236    0.000048
   -6   -6    0    3    3    0.000407    0.000000
   -6   -6    0    4    3   -0.000000    0.000000
   -6   -6    0    5    3    0.000000    0.000000
   -6   -6    0    1    4   -0.000000    0.000000
   -6   -6    0    2    4   -0.000000   -0.000000
   -6   -6    0    3    4   -0.000000   -0.000000
   -6   -6    0    4    4    0.000294    0.000000
   -6   -6    0    5    4    0.000256    0.000000
   -6   -6    0    1    5   -0.000000   -0.000000
   -6   -6    0    2    5    0.000000    0.000000
   -6   -6    0    3    5    0.000000   -0.000000
   -6   -6    0    4    5    0.000256   -0.000000
   -6   -6    0    5    5    0.000027    0.000000
   -6   -5    0    1    1    0.004792   -0.000000
   -6   -5    0    2    1   -0.001009   -0.000130
   -6   -5    0    3    1    0.000062   -0.000004
   -6   -5    0    4    1    0.000000    0.000000
   -6   -5    0    5    1    0.000000   -0.000000
   -6   -5    0    1    2   -0.001602    0.000206
   -6   -5    0    2    2   -0.000556    0.000000
   -6   -5    0    3    2    0.000267   -0.000054
   -6   -5    0    4    2   -0.000000   -0.000000
   -6   -5    0    5    2    0.000000   -0.000000
   -6   -5    0    1    3    0.001813    0.000129
   -6   -5    0    2    3   -0.001807   -0.000365
   -6   -5    0    3    3   -0.000933   -0.000000
   -6   -5    0    4    3    0.000000   -0.000000
   -6   -5    0    5    3    0.000000   -0.000000
   -6   -5    0    1    4    0.000000   -0.000000
   -6   -5    0    2    4   -0.000000    0.000000
   -6   -5    0    3    4   -0.000000    0.000000
   -6   -5    0    4    4   -0.000240   -0.000000
   -6   -5    0    5    4   -0.000170   -0.000000
   -6   -5    0    1    5    0.000000    0.000000
   -6   -5    0    2    5   -0.000000   -0.000000
   -6   -5    0    3    5   -0.000000   -0.000000
   -6   -5    0    4    5   -0.000335    0.000001
   -6   -5    0    5    5    0.000015    0.000000
   -6   -4    0    1    1   -0.001677    0.000000
   -6   -4    0    2    1    0.001795    0.000231
   -6   -4    0    3    1    0.000859   -0.000061
   -6   -4    0    4    1   -0.000000   -0.000000
   -6   -4    0    5    1   -0.000000    0.000000
   -6   -4    0    1    2   -0.000435    0.000056
   -6   -4    0    2    2   -0.000209   -0.000000
   -6   -4    0    3    2   -0.000430    0.000087
   -6   -4    0    4    2   -0.000000   -0.000000
   -6   -4    0    5    2   -0.000000    0.000000
   -6   -4    0    1    3   -0.001180   -0.000084
   -6   -4    0    2    3    0.001217    0.000246
   -6   -4    0    3    3    0.001776   -0.000000
   -6   -4    0    4    3   -0.000000   -0.000000
   -6   -4    0    5    3    0.000000    0.000000
   -6   -4    0    1    4   -0.000000    0.000000
   -6   -4    0    2    4   -0.000000    0.000000
   -6   -4    0    3    4    0.000000   -0.000000
   -6   -4    0    4    4    0.000336    0.000000
   -6   -4    0    5    4    0.000032    0.000000
   -6   -4    0    1    5    0.000000    0.000000
   -6   -4    0    2    5    0.000000    0.000000
   -6   -4    0    3    5    0.000000    0.000000
   -6   -4    0    4    5    0.000604   -0.000001
   -6   -4    0    5    5    0.000007   -0.000000
   -6   -3    0    1    1   -0.000660    0.000000
   -6   -3    0    2    1   -0.001419   -0.000183
   -6   -3    0    3    1   -0.000122    0.000009
   -6   -3    0    4    1   -0.000000   -0.000000
   -6   -3    0    5    1   -0.000000   -0.000000
   -6   -3    0    1    2    0.000267   -0.000034
   -6   -3    0    2    2    0.001087   -0.000000
   -6   -3    0    3    2   -0.001583    0.000320
   -6   -3    0    4    2   -0.000000   -0.000000
   -6   -3    0    5    2    0.000000    0.000000
   -6   -3    0    1    3   -0.000122   -0.000009
   -6   -3    0    2    3   -0.000251   -0.000051
   -6   -3    0    3    3   -0.000660    0.000000
   -6   -3    0    4    3    0.000000    0.000000
   -6   -3    0    5    3   -0.000000    0.000000
   -6   -3    0    1    4   -0.000000   -0.000000
   -6   -3    0    2    4    0.000000   -0.000000
   -6   -3    0    3    4   -0.000000    0.000000
   -6   -3    0    4    4   -0.000548   -0.000000
   -6   -3    0    5    4   -0.000013   -0.000000
   -6   -3    0    1    5    0.000000    0.000000
   -6   -3    0    2    5   -0.000000    0.000000
   -6   -3    0    3    5    0.000000    0.000000
   -6   -3    0    4    5   -0.000010    0.000000
   -6   -3    0    5    5   -0.000141    0.000000
   -6   -2    0    1    1    0.001776    0.000000
   -6   -2    0    2    1    0.000231    0.000030
   -6   -2    0    3    1   -0.001187    0.000085
   -6   -2    0    4    1    0.000000   -0.000000
   -6   -2    0    5    1    0.000000   -0.000000
   -6   -2    0    1    2    0.000242   -0.000031
   -6   -2    0    2    2   -0.000211    0.000000
   -6   -2    0    3    2    0.001573   -0.000318
   -6   -2    0    4    2   -0.000000    0.000000
   -6   -2    0    5    2    0.000000   -0.000000
   -6   -2    0    1    3    0.000854    0.000061
   -6   -2    0    2    3    0.000227    0.000046
   -6   -2    0    3    3   -0.001675   -0.000000
   -6   -2    0    4    3   -0.000000    0.000000
   -6   -2    0    5    3    0.000000   -0.000000
   -6   -2    0    1    4    0.000000   -0.000000
   -6   -2    0    2    4   -0.000000    0.000000
   -6   -2    0    3    4    0.000000    0.000000
   -6   -2    0    4    4    0.000374    0.000000
   -6   -2    0    5    4   -0.000011   -0.000000
   -6   -2    0    1    5    0.000000    0.000000
   -6   -2    0    2    5   -0.000000   -0.000000
   -6   -2    0    3    5    0.000000    0.000000
   -6   -2    0    4    5   -0.000587    0.000001
   -6   -2    0    5    5   -0.000031   -0.000000
   -6   -1    0    1    1   -0.000929    0.000000
   -6   -1    0    2    1   -0.000258   -0.000033
   -6   -1    0    3    1    0.001822   -0.000130
   -6   -1    0    4    1   -0.000000    0.000000
   -6   -1    0    5    1   -0.000000    0.000000
   -6   -1    0    1    2   -0.001831    0.000236
   -6   -1    0    2    2   -0.000555    0.000000
   -6   -1    0    3    2   -0.000997    0.000201
   -6   -1    0    4    2   -0.000000   -0.000000
   -6   -1    0    5    2   -0.000000    0.000000
   -6   -1    0    1    3    0.000072    0.000005
   -6   -1    0    2    3   -0.001402   -0.000283
   -6   -1    0    3    3    0.004788   -0.000000
   -6   -1    0    4    3   -0.000000   -0.000000
   -6   -1    0    5    3   -0.000000   -0.000000
   -6   -1    0    1    4   -0.000000    0.000000
   -6   -1    0    2    4    0.000000    0.000000
   -6   -1    0    3    4   -0.000000   -0.000000
   -6   -1    0    4    4   -0.000270   -0.000000
   -6   -1    0    5    4    0.000154    0.000000
   -6   -1    0    1    5   -0.000000   -0.000000
   -6   -1    0    2    5   -0.000000    0.000000
   -6   -1    0    3    5   -0.000000   -0.000000
   -6   -1    0    4    5    0.000323   -0.000001
   -6   -1    0    5    5    0.000046    0.000000
   -6    0    0    1    1    0.000402    0.000000
   -6    0    0    2    1    0.001235    0.000159
   -6    0    0    3    1   -0.001022    0.000073
   -6    0    0    4    1    0.000000   -0.000000
   -6    0    0    5    1    0.000000   -0.000000
   -6    0    0    1    2    0.001235   -0.000159
   -6    0    0    2    2    0.000407    0.000000
   -6    0    0    3    2    0.001774   -0.000358
   -6    0    0    4    2   -0.000000   -0.000000
   -6    0    0    5    2    0.000000   -0.000000
   -6    0    0    1    3   -0.001022   -0.000073
   -6    0    0    2    3    0.001774    0.000358
   -6    0    0    3    3   -0.006118   -0.000000
   -6    0    0    4    3    0.000000   -0.000000
   -6    0    0    5    3    0.000000    0.000000
   -6    0    0    1    4    0.000000    0.000000
   -6    0    0    2    4   -0.000000    0.000000
   -6    0    0    3    4    0.000000    0.000000
   -6    0    0    4    4    0.000321   -0.000000
   -6    0    0    5    4   -0.000238   -0.000000
   -6    0    0    1    5    0.000000    0.000000
   -6    0    0    2    5    0.000000    0.000000
   -6    0    0    3    5    0.000000   -0.000000
   -6    0    0    4    5   -0.000238    0.000000
   -6    0    0    5    5   -0.000000   -0.000000
   -5   -7    0    1    1   -0.001509   -0.000000
   -5   -7    0    2    1    0.000766    0.000099
   -5   -7    0    3    1   -0.000337    0.000024
   -5   -7    0    4    1   -0.000000    0.000000
   -5   -7    0    5    1   -0.000000    0.000000
   -5   -7    0    1    2    0.000065   -0.000008
   -5   -7    0    2    2   -0.000411    0.000000
   -5   -7    0    3    2    0.000237   -0.000048
   -5   -7    0    4    2   -0.000000    0.000000
   -5   -7    0    5    2    0.000000   -0.000000
   -5   -7    0    1    3   -0.000041   -0.000003
   -5   -7    0    2    3    0.000058    0.000012
   -5   -7    0    3    3   -0.000410    0.000000
   -5   -7    0    4    3    0.000000   -0.000000
   -5   -7    0    5    3    0.000000   -0.000000
   -5   -7    0    1    4   -0.000000    0.000000
   -5   -7    0    2    4    0.000000   -0.000000
   -5   -7    0    3    4   -0.000000    0.000000
   -5   -7    0    4    4    0.000284   -0.000000
   -5   -7    0    5    4    0.000239    0.000000
   -5   -7    0    1    5   -0.000000   -0.000000
   -5   -7    0    2    5    0.000000    0.000000
   -5   -7    0    3    5    0.000000    0.000000
   -5   -7    0    4    5    0.000249   -0.000000
   -5   -7    0    5    5    0.000020    0.000000
   -5   -6    0    1    1    0.004793    0.000000
   -5   -6    0    2    1   -0.000336   -0.000043
   -5   -6    0    3    1    0.001597   -0.000114
   -5   -6    0    4    1    0.000000    0.000000
   -5   -6    0    5    1    0.000000   -0.000000
   -5   -6    0    1    2    0.000387   -0.000050
   -5   -6    0    2    2   -0.000932    0.000000
   -5   -6    0    3    2   -0.002098    0.000424
   -5   -6    0    4    2    0.000000   -0.000000
   -5   -6    0    5    2    0.000000   -0.000000
   -5   -6    0    1    3    0.001803    0.000129
   -5   -6    0    2    3   -0.000479   -0.000097
   -5   -6    0    3    3   -0.000557   -0.000000
   -5   -6    0    4    3    0.000000   -0.000000
   -5   -6    0    5    3   -0.000000    0.000000
   -5   -6    0    1    4    0.000000   -0.000000
   -5   -6    0    2    4    0.000000   -0.000000
   -5   -6    0    3    4    0.000000    0.000000
   -5   -6    0    4    4   -0.000266   -0.000000
   -5   -6    0    5    4   -0.000156   -0.000000
   -5   -6    0    1    5    0.000000    0.000000
   -5   -6    0    2    5   -0.000000   -0.000000
   -5   -6    0    3    5   -0.000000   -0.000000
   -5   -6    0    4    5   -0.000337    0.000001
   -5   -6    0    5    5    0.000041    0.000000
   -5   -5    0    1    1   -0.007257   -0.000000
   -5   -5    0    2    1    0.001805    0.000233
   -5   -5    0    3    1    0.000394   -0.000028
   -5   -5    0    4    1   -0.000000   -0.000000
   -5   -5    0    5    1   -0.000000    0.000000
   -5   -5    0    1    2    0.001701   -0.000219
   -5   -5    0    2    2    0.001814   -0.000000
   -5   -5    0    3    2    0.001657   -0.000335
   -5   -5    0    4    2    0.000000    0.000000
   -5   -5    0    5    2    0.000000   -0.000000
   -5   -5    0    1    3   -0.003400   -0.000243
   -5   -5    0    2    3    0.001217    0.000246
   -5   -5    0    3    3    0.001816    0.000000
   -5   -5    0    4    3    0.000000   -0.000000
   -5   -5    0    5    3    0.000000    0.000000
   -5   -5    0    1    4   -0.000000    0.000000
   -5   -5    0    2    4    0.000000   -0.000000
   -5   -5    0    3    4    0.000000   -0.000000
   -5   -5    0    4    4    0.000954    0.000000
   -5   -5    0    5    4    0.000195    0.000000
   -5   -5    0    1    5   -0.000000   -0.000000
   -5   -5    0    2    5    0.000000    0.000000
   -5   -5    0    3    5    0.000000    0.000000
   -5   -5    0    4    5    0.001500   -0.000003
   -5   -5    0    5    5    0.000081   -0.000000
   -5   -4    0    1    1    0.005560    0.000000
   -5   -4    0    2    1   -0.003385   -0.000436
   -5   -4    0    3    1   -0.002130    0.000152
   -5   -4    0    4    1    0.000000    0.000000
   -5   -4    0    5    1    0.000000   -0.000000
   -5   -4    0    1    2   -0.002030    0.000261
   -5   -4    0    2    2    0.001129    0.000000
   -5   -4    0    3    2    0.001805   -0.000365
   -5   -4    0    4    2    0.000000   -0.000000
   -5   -4    0    5    2   -0.000000    0.000000
   -5   -4    0    1    3    0.000106    0.000008
   -5   -4    0    2    3   -0.001726   -0.000349
   -5   -4    0    3    3    0.000044   -0.000000
   -5   -4    0    4    3   -0.000000    0.000000
   -5   -4    0    5    3   -0.000000    0.000000
   -5   -4    0    1    4   -0.000000    0.000000
   -5   -4    0    2    4    0.000000   -0.000000
   -5   -4    0    3    4   -0.000000   -0.000000
   -5   -4    0    4    4   -0.000128    0.000000
   -5   -4    0    5    4   -0.000103   -0.000000
   -5   -4    0    1    5    0.000000   -0.000000
   -5   -4    0    2    5    0.000000   -0.000000
   -5   -4    0    3    5   -0.000000   -0.000000
   -5   -4    0    4    5    0.000020   -0.000000
   -5   -4    0    5    5    0.000044   -0.000000
   -5   -3    0    1    1   -0.001404    0.000000
   -5   -3    0    2    1    0.003382    0.000436
   -5   -3    0    3    1    0.000884   -0.000063
   -5   -3    0    4    1   -0.000000    0.000000
   -5   -3    0    5    1    0.000000    0.000000
   -5   -3    0    1    2    0.001825   -0.000235
   -5   -3    0    2    2    0.000062   -0.000000
   -5   -3    0    3    2   -0.002011    0.000406
   -5   -3    0    4    2   -0.000000    0.000000
   -5   -3    0    5    2   -0.000000    0.000000
   -5   -3    0    1    3    0.000617    0.000044
   -5   -3    0    2    3    0.001779    0.000359
   -5   -3    0    3    3   -0.002053    0.000000
   -5   -3    0    4    3    0.000000   -0.000000
   -5   -3    0    5    3   -0.000000    0.000000
   -5   -3    0    1    4   -0.000000   -0.000000
   -5   -3    0    2    4    0.000000   -0.000000
   -5   -3    0    3    4   -0.000000    0.000000
   -5   -3    0    4    4    0.000205    0.000000
   -5   -3    0    5    4    0.000066    0.000000
   -5   -3    0    1    5    0.000000   -0.000000
   -5   -3    0    2    5   -0.000000    0.000000
   -5   -3    0    3    5   -0.000000    0.000000
   -5   -3    0    4    5    0.001647   -0.000003
   -5   -3    0    5    5   -0.000209   -0.000000
   -5   -2    0    1    1   -0.002049    0.000000
   -5   -2    0    2    1   -0.002883   -0.000371
   -5   -2    0    3    1    0.000619   -0.000044
   -5   -2    0    4    1    0.000000   -0.000000
   -5   -2    0    5    1    0.000000   -0.000000
   -5   -2    0    1    2    0.001680   -0.000216
   -5   -2    0    2    2    0.000058   -0.000000
   -5   -2    0    3    2    0.001680   -0.000339
   -5   -2    0    4    2    0.000000    0.000000
   -5   -2    0    5    2   -0.000000    0.000000
   -5   -2    0    1    3    0.000884    0.000063
   -5   -2    0    2    3   -0.000766   -0.000155
   -5   -2    0    3    3   -0.001404    0.000000
   -5   -2    0    4    3   -0.000000    0.000000
   -5   -2    0    5    3    0.000000   -0.000000
   -5   -2    0    1    4   -0.000000   -0.000000
   -5   -2    0    2    4    0.000000    0.000000
   -5   -2    0    3    4   -0.000000    0.000000
   -5   -2    0    4    4    0.000300    0.000000
   -5   -2    0    5    4   -0.000038   -0.000000
   -5   -2    0    1    5   -0.000000   -0.000000
   -5   -2    0    2    5    0.000000    0.000000
   -5   -2    0    3    5    0.000000   -0.000000
   -5   -2    0    4    5   -0.001620    0.000003
   -5   -2    0    5    5   -0.000304   -0.000000
   -5   -1    0    1    1    0.000042    0.000000
   -5   -1    0    2    1   -0.000778   -0.000100
   -5   -1    0    3    1    0.000115   -0.000008
   -5   -1    0    4    1   -0.000000    0.000000
   -5   -1    0    5    1   -0.000000    0.000000
   -5   -1    0    1    2   -0.002123    0.000273
   -5   -1    0    2    2    0.001130    0.000000
   -5   -1    0    3    2    0.000384   -0.000078
   -5   -1    0    4    2   -0.000000    0.000000
   -5   -1    0    5    2   -0.000000    0.000000
   -5   -1    0    1    3   -0.002121   -0.000151
   -5   -1    0    2    3   -0.002849   -0.000575
   -5   -1    0    3    3    0.005561   -0.000000
   -5   -1    0    4    3   -0.000000   -0.000000
   -5   -1    0    5    3   -0.000000    0.000000
   -5   -1    0    1    4    0.000000   -0.000000
   -5   -1    0    2    4    0.000000   -0.000000
   -5   -1    0    3    4   -0.000000   -0.000000
   -5   -1    0    4    4   -0.000133    0.000000
   -5   -1    0    5    4    0.000092    0.000000
   -5   -1    0    1    5   -0.000000   -0.000000
   -5   -1    0    2    5   -0.000000    0.000000
   -5   -1    0    3    5   -0.000000   -0.000000
   -5   -1    0    4    5   -0.000024    0.000000
   -5   -1    0    5    5    0.000049   -0.000000
   -5    0    0    1    1    0.001809   -0.000000
   -5    0    0    2    1    0.001806    0.000233
   -5    0    0    3    1   -0.003414    0.000244
   -5    0    0    4    1    0.000000   -0.000000
   -5    0    0    5    1    0.000000   -0.000000
   -5    0    0    1    2    0.000240   -0.000031
   -5    0    0    2    2    0.001815    0.000000
   -5    0    0    3    2    0.000065   -0.000013
   -5    0    0    4    2    0.000000    0.000000
   -5    0    0    5    2    0.000000   -0.000000
   -5    0    0    1    3    0.000379    0.000027
   -5    0    0    2    3    0.003343    0.000675
   -5    0    0    3    3   -0.007250    0.000000
   -5    0    0    4    3    0.000000   -0.000000
   -5    0    0    5    3    0.000000   -0.000000
   -5    0    0    1    4    0.000000    0.000000
   -5    0    0    2    4    0.000000   -0.000000
   -5    0    0    3    4   -0.000000    0.000000
   -5    0    0    4    4    0.001044    0.000000
   -5    0    0    5    4   -0.000140   -0.000000
   -5    0    0    1    5    0.000000    0.000000
   -5    0    0    2    5    0.000000    0.000000
   -5    0    0    3    5   -0.000000   -0.000000
   -5    0    0    4    5   -0.001440    0.000002
   -5    0    0    5    5   -0.000009   -0.000000
   -5    1    0    1    1   -0.000551    0.000000
   -5    1    0    2    1   -0.001754   -0.000226
   -5    1    0    3    1    0.001810   -0.000129
   -5    1    0    4    1   -0.000000    0.000000
   -5    1    0    5    1   -0.000000    0.000000
   -5    1    0    1    2   -0.000485    0.000062
   -5    1    0    2    2   -0.000932    0.000000
   -5    1    0    3    2   -0.000040    0.000008
   -5    1    0    4    2   -0.000000    0.000000
   -5    1    0    5    2   -0.000000   -0.000000
   -5    1    0    1    3    0.001606    0.000115
   -5    1    0    2    3   -0.003348   -0.000676
   -5    1    0    3    3    0.004786   -0.000000
   -5    1    0    4    3   -0.000000    0.000000
   -5    1    0    5    3   -0.000000    0.000000
   -5    1    0    1    4   -0.000000   -0.000000
   -5    1    0    2    4    0.000000    0.000000
   -5    1    0    3    4    0.000000    0.000000
   -5    1    0    4    4   -0.000297   -0.000000
   -5    1    0    5    4    0.000138    0.000000
   -5    1    0    1    5   -0.000000   -0.000000
   -5    1    0    2    5   -0.000000   -0.000000
   -5    1    0    3    5    0.000000    0.000000
   -5    1    0    4    5    0.000324   -0.000001
   -5    1    0    5    5    0.000072    0.000000
   -5    2    0    1    1   -0.000412    0.000000
   -5    2    0    2    1    0.001235    0.000159
   -5    2    0    3    1   -0.000042    0.000003
   -5    2    0    4    1    0.000000    0.000000
   -5    2    0    5    1    0.000000   -0.000000
   -5    2    0    1    2   -0.000106    0.000014
   -5    2    0    2    2   -0.000410    0.000000
   -5    2    0    3    2    0.000086   -0.000017
   -5    2    0    4    2   -0.000000    0.000000
   -5    2    0    5    2    0.000000   -0.000000
   -5    2    0    1    3   -0.000338   -0.000024
   -5    2    0    2    3    0.001784    0.000360
   -5    2    0    3    3   -0.001509   -0.000000
   -5    2    0    4    3    0.000000   -0.000000
   -5    2    0    5    3   -0.000000   -0.000000
   -5    2    0    1    4   -0.000000   -0.000000
   -5    2    0    2    4    0.000000    0.000000
   -5    2    0    3    4    0.000000    0.000000
   -5    2    0    4    4    0.000312   -0.000000
   -5    2    0    5    4   -0.000224   -0.000000
   -5    2    0    1    5    0.000000   -0.000000
   -5    2    0    2    5    0.000000    0.000000
   -5    2    0    3    5    0.000000   -0.000000
   -5    2    0    4    5   -0.000234    0.000000
   -5    2    0    5    5   -0.000008    0.000000
   -4   -8    0    1    1    0.000895   -0.000000
   -4   -8    0    2    1   -0.000105   -0.000014
   -4   -8    0    3    1    0.000056   -0.000004
   -4   -8    0    4    1    0.000000   -0.000000
   -4   -8    0    5    1    0.000000    0.000000
   -4   -8    0    1    2    0.000250   -0.000032
   -4   -8    0    2    2    0.000895    0.000000
   -4   -8    0    3    2    0.000058   -0.000012
   -4   -8    0    4    2   -0.000000   -0.000000
   -4   -8    0    5    2   -0.000000    0.000000
   -4   -8    0    1    3    0.000055    0.000004
   -4   -8    0    2    3   -0.000409   -0.000083
   -4   -8    0    3    3    0.000895    0.000000
   -4   -8    0    4    3   -0.000000    0.000000
   -4   -8    0    5    3    0.000000    0.000000
   -4   -8    0    1    4    0.000000   -0.000000
   -4   -8    0    2    4    0.000000    0.000000
   -4   -8    0    3    4    0.000000   -0.000000
   -4   -8    0    4    4   -0.000018    0.000000
   -4   -8    0    5    4   -0.000000   -0.000000
   -4   -8    0    1    5    0.000000    0.000000
   -4   -8    0    2    5   -0.000000   -0.000000
   -4   -8    0    3    5    0.000000    0.000000
   -4   -8    0    4    5   -0.000000    0.000000
   -4   -8    0    5    5   -0.000015   -0.000000
   -4   -7    0    1    1   -0.000921   -0.000000
   -4   -7    0    2    1    0.000056    0.000007
   -4   -7    0    3    1    0.000771   -0.000055
   -4   -7    0    4    1   -0.000000   -0.000000
   -4   -7    0    5    1    0.000000    0.000000
   -4   -7    0    1    2    0.000853   -0.000110
   -4   -7    0    2    2    0.001228   -0.000000
   -4   -7    0    3    2    0.000266   -0.000054
   -4   -7    0    4    2    0.000000   -0.000000
   -4   -7    0    5    2   -0.000000    0.000000
   -4   -7    0    1    3    0.000089    0.000006
   -4   -7    0    2    3    0.000054    0.000011
   -4   -7    0    3    3   -0.000346    0.000000
   -4   -7    0    4    3    0.000000   -0.000000
   -4   -7    0    5    3    0.000000   -0.000000
   -4   -7    0    1    4   -0.000000   -0.000000
   -4   -7    0    2    4    0.000000   -0.000000
   -4   -7    0    3    4    0.000000   -0.000000
   -4   -7    0    4    4   -0.000062   -0.000000
   -4   -7    0    5    4   -0.000034   -0.000000
   -4   -7    0    1    5   -0.000000    0.000000
   -4   -7    0    2    5   -0.000000   -0.000000
   -4   -7    0    3    5    0.000000    0.000000
   -4   -7    0    4    5    0.000001   -0.000000
   -4   -7    0    5    5   -0.000070    0.000000
   -4   -6    0    1    1   -0.001678   -0.000000
   -4   -6    0    2    1   -0.000413   -0.000053
   -4   -6    0    3    1   -0.001610    0.000115
   -4   -6    0    4    1   -0.000000    0.000000
   -4   -6    0    5    1    0.000000   -0.000000
   -4   -6    0    1    2   -0.002115    0.000272
   -4   -6    0    2    2    0.001776    0.000000
   -4   -6    0    3    2    0.001659   -0.000335
   -4   -6    0    4    2   -0.000000    0.000000
   -4   -6    0    5    2    0.000000   -0.000000
   -4   -6    0    1    3   -0.001426   -0.000102
   -4   -6    0    2    3   -0.000104   -0.000021
   -4   -6    0    3    3   -0.000208    0.000000
   -4   -6    0    4    3   -0.000000    0.000000
   -4   -6    0    5    3    0.000000   -0.000000
   -4   -6    0    1    4   -0.000000    0.000000
   -4   -6    0    2    4    0.000000   -0.000000
   -4   -6    0    3    4    0.000000    0.000000
   -4   -6    0    4    4    0.000352   -0.000000
   -4   -6    0    5    4    0.000023    0.000000
   -4   -6    0    1    5   -0.000000   -0.000000
   -4   -6    0    2    5   -0.000000   -0.000000
   -4   -6    0    3    5   -0.000000   -0.000000
   -4   -6    0    4    5    0.000612   -0.000001
   -4   -6    0    5    5   -0.000009    0.000000
   -4   -5    0    1    1    0.005563    0.000000
   -4   -5    0    2    1   -0.001175   -0.000151
   -4   -5    0    3    1    0.001708   -0.000122
   -4   -5    0    4    1    0.000000    0.000000
   -4   -5    0    5    1   -0.000000    0.000000
   -4   -5    0    1    2   -0.001172    0.000151
   -4   -5    0    2    2    0.000044   -0.000000
   -4   -5    0    3    2    0.000180   -0.000036
   -4   -5    0    4    2    0.000000   -0.000000
   -4   -5    0    5    2    0.000000   -0.000000
   -4   -5    0    1    3    0.003399    0.000243
   -4   -5    0    2    3   -0.000251   -0.000051
   -4   -5    0    3    3    0.001127    0.000000
   -4   -5    0    4    3    0.000000   -0.000000
   -4   -5    0    5    3    0.000000   -0.000000
   -4   -5    0    1    4    0.000000   -0.000000
   -4   -5    0    2    4    0.000000    0.000000
   -4   -5    0    3    4    0.000000   -0.000000
   -4   -5    0    4    4   -0.000061    0.000000
   -4   -5    0    5    4   -0.000142   -0.000000
   -4   -5    0    1    5    0.000000   -0.000000
   -4   -5    0    2    5   -0.000000   -0.000000
   -4   -5    0    3    5   -0.000000   -0.000000
   -4   -5    0    4    5   -0.000076    0.000000
   -4   -5    0    5    5   -0.000024   -0.000000
   -4   -4    0    1    1   -0.008897    0.000000
   -4   -4    0    2    1    0.000109    0.000014
   -4   -4    0    3    1   -0.001174    0.000084
   -4   -4    0    4    1   -0.000000    0.000000
   -4   -4    0    5    1    0.000000   -0.000000
   -4   -4    0    1    2    0.000327   -0.000042
   -4   -4    0    2    2    0.002776   -0.000000
   -4   -4    0    3    2   -0.001424    0.000288
   -4   -4    0    4    2    0.000000    0.000000
   -4   -4    0    5    2    0.000000   -0.000000
   -4   -4    0    1    3   -0.006691   -0.000478
   -4   -4    0    2    3    0.001780    0.000360
   -4   -4    0    3    3    0.002779    0.000000
   -4   -4    0    4    3    0.000000   -0.000000
   -4   -4    0    5    3   -0.000000    0.000000
   -4   -4    0    1    4   -0.000000    0.000000
   -4   -4    0    2    4    0.000000   -0.000000
   -4   -4    0    3    4    0.000000   -0.000000
   -4   -4    0    4    4    0.004269    0.000000
   -4   -4    0    5    4   -0.000039   -0.000000
   -4   -4    0    1    5   -0.000000    0.000000
   -4   -4    0    2    5   -0.000000    0.000000
   -4   -4    0    3    5   -0.000000    0.000000
   -4   -4    0    4    5    0.007658   -0.000013
   -4   -4    0    5    5    0.000328   -0.000000
   -4   -3    0    1    1    0.010535    0.000000
   -4   -3    0    2    1   -0.006660   -0.000858
   -4   -3    0    3    1   -0.006726    0.000480
   -4   -3    0    4    1    0.000000   -0.000000
   -4   -3    0    5    1   -0.000000    0.000000
   -4   -3    0    1    2   -0.003890    0.000501
   -4   -3    0    2    2    0.001831    0.000000
   -4   -3    0    3    2   -0.003837    0.000775
   -4   -3    0    4    2    0.000000   -0.000000
   -4   -3    0    5    2    0.000000   -0.000000
   -4   -3    0    1    3    0.006706    0.000479
   -4   -3    0    2    3   -0.004012   -0.000810
   -4   -3    0    3    3   -0.005694   -0.000000
   -4   -3    0    4    3    0.000000    0.000000
   -4   -3    0    5    3   -0.000000    0.000000
   -4   -3    0    1    4    0.000000   -0.000000
   -4   -3    0    2    4    0.000000   -0.000000
   -4   -3    0    3    4    0.000000   -0.000000
   -4   -3    0    4    4   -0.001714    0.000000
   -4   -3    0    5    4   -0.000048   -0.000000
   -4   -3    0    1    5    0.000000    0.000000
   -4   -3    0    2    5    0.000000   -0.000000
   -4   -3    0    3    5   -0.000000    0.000000
   -4   -3    0    4    5   -0.000186    0.000000
   -4   -3    0    5    5   -0.000342   -0.000000
   -4   -2    0    1    1    0.000682    0.000000
   -4   -2    0    2    1    0.009036    0.001164
   -4   -2    0    3    1    0.006690   -0.000478
   -4   -2    0    4    1   -0.000000    0.000000
   -4   -2    0    5    1    0.000000   -0.000000
   -4   -2    0    1    2   -0.001441    0.000186
   -4   -2    0    2    2   -0.006543    0.000000
   -4   -2    0    3    2    0.000326   -0.000066
   -4   -2    0    4    2   -0.000000    0.000000
   -4   -2    0    5    2   -0.000000    0.000000
   -4   -2    0    1    3    0.006690    0.000478
   -4   -2    0    2    3    0.002119    0.000428
   -4   -2    0    3    3    0.000664   -0.000000
   -4   -2    0    4    3   -0.000000    0.000000
   -4   -2    0    5    3    0.000000    0.000000
   -4   -2    0    1    4   -0.000000   -0.000000
   -4   -2    0    2    4   -0.000000    0.000000
   -4   -2    0    3    4    0.000000   -0.000000
   -4   -2    0    4    4    0.001360   -0.000000
   -4   -2    0    5    4    0.000051    0.000000
   -4   -2    0    1    5    0.000000   -0.000000
   -4   -2    0    2    5    0.000000   -0.000000
   -4   -2    0    3    5    0.000000    0.000000
   -4   -2    0    4    5    0.000042   -0.000000
   -4   -2    0    5    5   -0.000438    0.000000
   -4   -1    0    1    1   -0.005694   -0.000000
   -4   -1    0    2    1   -0.005513   -0.000710
   -4   -1    0    3    1    0.006733   -0.000481
   -4   -1    0    4    1   -0.000000    0.000000
   -4   -1    0    5    1   -0.000000    0.000000
   -4   -1    0    1    2    0.000180   -0.000023
   -4   -1    0    2    2    0.001835    0.000000
   -4   -1    0    3    2   -0.001161    0.000235
   -4   -1    0    4    2   -0.000000    0.000000
   -4   -1    0    5    2   -0.000000    0.000000
   -4   -1    0    1    3   -0.006694   -0.000478
   -4   -1    0    2    3   -0.005438   -0.001099
   -4   -1    0    3    3    0.010531   -0.000000
   -4   -1    0    4    3   -0.000000   -0.000000
   -4   -1    0    5    3   -0.000000    0.000000
   -4   -1    0    1    4    0.000000    0.000000
   -4   -1    0    2    4    0.000000   -0.000000
   -4   -1    0    3    4    0.000000    0.000000
   -4   -1    0    4    4   -0.001726    0.000000
   -4   -1    0    5    4   -0.000033   -0.000000
   -4   -1    0    1    5   -0.000000    0.000000
   -4   -1    0    2    5   -0.000000    0.000000
   -4   -1    0    3    5    0.000000   -0.000000
   -4   -1    0    4    5    0.000116   -0.000000
   -4   -1    0    5    5   -0.000330   -0.000000
   -4    0    0    1    1    0.002764    0.000000
   -4    0    0    2    1    0.002167    0.000279
   -4    0    0    3    1   -0.006709    0.000479
   -4    0    0    4    1    0.000000   -0.000000
   -4    0    0    5    1    0.000000   -0.000000
   -4    0    0    1    2    0.001675   -0.000216
   -4    0    0    2    2    0.002774    0.000000
   -4    0    0    3    2   -0.002092    0.000423
   -4    0    0    4    2    0.000000   -0.000000
   -4    0    0    5    2    0.000000   -0.000000
   -4    0    0    1    3   -0.001195   -0.000085
   -4    0    0    2    3    0.008934    0.001805
   -4    0    0    3    3   -0.008880   -0.000000
   -4    0    0    4    3    0.000000    0.000000
   -4    0    0    5    3    0.000000    0.000000
   -4    0    0    1    4    0.000000    0.000000
   -4    0    0    2    4   -0.000000   -0.000000
   -4    0    0    3    4   -0.000000    0.000000
   -4    0    0    4    4    0.004674    0.000000
   -4    0    0    5    4    0.000284    0.000000
   -4    0    0    1    5    0.000000    0.000000
   -4    0    0    2    5   -0.000000    0.000000
   -4    0    0    3    5   -0.000000   -0.000000
   -4    0    0    4    5   -0.007384    0.000012
   -4    0    0    5    5   -0.000077   -0.000000
   -4    1    0    1    1    0.001137   -0.000000
   -4    1    0    2    1   -0.004074   -0.000525
   -4    1    0    3    1    0.003404   -0.000243
   -4    1    0    4    1   -0.000000    0.000000
   -4    1    0    5    1   -0.000000    0.000000
   -4    1    0    1    2    0.000271   -0.000035
   -4    1    0    2    2    0.000040    0.000000
   -4    1    0    3    2    0.000842   -0.000170
   -4    1    0    4    2   -0.000000    0.000000
   -4    1    0    5    2   -0.000000    0.000000
   -4    1    0    1    3    0.001714    0.000122
   -4    1    0    2    3   -0.006580   -0.001329
   -4    1    0    3    3    0.005556    0.000000
   -4    1    0    4    3   -0.000000    0.000000
   -4    1    0    5    3    0.000000   -0.000000
   -4    1    0    1    4    0.000000    0.000000
   -4    1    0    2    4    0.000000    0.000000
   -4    1    0    3    4    0.000000    0.000000
   -4    1    0    4    4   -0.000079   -0.000000
   -4    1    0    5    4    0.000136    0.000000
   -4    1    0    1    5   -0.000000   -0.000000
   -4    1    0    2    5   -0.000000   -0.000000
   -4    1    0    3    5    0.000000    0.000000
   -4    1    0    4    5    0.000082   -0.000000
   -4    1    0    5    5   -0.000005    0.000000
   -4    2    0    1    1   -0.000213    0.000000
   -4    2    0    2    1    0.001803    0.000232
   -4    2    0    3    1   -0.001428    0.000102
   -4    2    0    4    1    0.000000    0.000000
   -4    2    0    5    1   -0.000000    0.000000
   -4    2    0    1    2    0.000061   -0.000008
   -4    2    0    2    2    0.001776   -0.000000
   -4    2    0    3    2    0.000246   -0.000050
   -4    2    0    4    2   -0.000000    0.000000
   -4    2    0    5    2   -0.000000    0.000000
   -4    2    0    1    3   -0.001613   -0.000115
   -4    2    0    2    3    0.000106    0.000021
   -4    2    0    3    3   -0.001673    0.000000
   -4    2    0    4    3    0.000000   -0.000000
   -4    2    0    5    3    0.000000   -0.000000
   -4    2    0    1    4    0.000000    0.000000
   -4    2    0    2    4    0.000000    0.000000
   -4    2    0    3    4   -0.000000   -0.000000
   -4    2    0    4    4    0.000389   -0.000000
   -4    2    0    5    4   -0.000000   -0.000000
   -4    2    0    1    5    0.000000    0.000000
   -4    2    0    2    5    0.000000    0.000000
   -4    2    0    3    5   -0.000000    0.000000
   -4    2    0    4    5   -0.000596    0.000001
   -4    2    0    5    5   -0.000046    0.000000
   -4    3    0    1    1   -0.000345    0.000000
   -4    3    0    2    1   -0.000256   -0.000033
   -4    3    0    3    1    0.000087   -0.000006
   -4    3    0    4    1   -0.000000    0.000000
   -4    3    0    5    1    0.000000   -0.000000
   -4    3    0    1    2    0.000055   -0.000007
   -4    3    0    2    2    0.001228    0.000000
   -4    3    0    3    2    0.000055   -0.000011
   -4    3    0    4    2    0.000000    0.000000
   -4    3    0    5    2   -0.000000    0.000000
   -4    3    0    1    3    0.000770    0.000055
   -4    3    0    2    3   -0.001162   -0.000235
   -4    3    0    3    3   -0.000922   -0.000000
   -4    3    0    4    3    0.000000   -0.000000
   -4    3    0    5    3    0.000000   -0.000000
   -4    3    0    1    4   -0.000000   -0.000000
   -4    3    0    2    4    0.000000   -0.000000
   -4    3    0    3    4    0.000000   -0.000000
   -4    3    0    4    4   -0.000063   -0.000000
   -4    3    0    5    4    0.000034    0.000000
   -4    3    0    1    5   -0.000000   -0.000000
   -4    3    0    2    5   -0.000000   -0.000000
   -4    3    0    3    5   -0.000000   -0.000000
   -4    3    0    4    5   -0.000001    0.000000
   -4    3    0    5    5   -0.000069    0.000000
   -4    4    0    1    1    0.000895   -0.000000
   -4    4    0    2    1   -0.000105   -0.000014
   -4    4    0    3    1    0.000056   -0.000004
   -4    4    0    4    1    0.000000   -0.000000
   -4    4    0    5    1    0.000000    0.000000
   -4    4    0    1    2    0.000250   -0.000032
   -4    4    0    2    2    0.000895    0.000000
   -4    4    0    3    2    0.000058   -0.000012
   -4    4    0    4    2   -0.000000   -0.000000
   -4    4    0    5    2   -0.000000    0.000000
   -4    4    0    1    3    0.000055    0.000004
   -4    4    0    2    3   -0.000409   -0.000083
   -4    4    0    3    3    0.000895    0.000000
   -4    4    0    4    3   -0.000000    0.000000
   -4    4    0    5    3    0.000000    0.000000
   -4    4    0    1    4    0.000000   -0.000000
   -4    4    0    2    4    0.000000    0.000000
   -4    4    0    3    4    0.000000   -0.000000
   -4    4    0    4    4   -0.000018    0.000000
   -4    4    0    5    4   -0.000000   -0.000000
   -4    4    0    1    5    0.000000    0.000000
   -4    4    0    2    5   -0.000000   -0.000000
   -4    4    0    3    5    0.000000    0.000000
   -4    4    0    4    5   -0.000000    0.000000
   -4    4    0    5    5   -0.000015   -0.000000
   -3   -7    0    1    1    0.001228   -0.000000
   -3   -7    0    2    1    0.000087    0.000011
   -3   -7    0    3    1    0.000059   -0.000004
   -3   -7    0    4    1    0.000000    0.000000
   -3   -7    0    5    1    0.000000   -0.000000
   -3   -7    0    1    2   -0.000122    0.000016
   -3   -7    0    2    2   -0.000921   -0.000000
   -3   -7    0    3    2   -0.000430    0.000087
   -3   -7    0    4    2   -0.000000   -0.000000
   -3   -7    0    5    2   -0.000000   -0.000000
   -3   -7    0    1    3   -0.000107   -0.000008
   -3   -7    0    2    3    0.000246    0.000050
   -3   -7    0    3    3   -0.000346    0.000000
   -3   -7    0    4    3   -0.000000   -0.000000
   -3   -7    0    5    3   -0.000000   -0.000000
   -3   -7    0    1    4    0.000000    0.000000
   -3   -7    0    2    4   -0.000000   -0.000000
   -3   -7    0    3    4   -0.000000    0.000000
   -3   -7    0    4    4   -0.000060   -0.000000
   -3   -7    0    5    4    0.000007    0.000000
   -3   -7    0    1    5    0.000000    0.000000
   -3   -7    0    2    5    0.000000    0.000000
   -3   -7    0    3    5   -0.000000   -0.000000
   -3   -7    0    4    5   -0.000027    0.000000
   -3   -7    0    5    5   -0.000072    0.000000
   -3   -6    0    1    1   -0.000660   -0.000000
   -3   -6    0    2    1    0.000248    0.000032
   -3   -6    0    3    1   -0.000437    0.000031
   -3   -6    0    4    1   -0.000000   -0.000000
   -3   -6    0    5    1    0.000000   -0.000000
   -3   -6    0    1    2    0.000880   -0.000113
   -3   -6    0    2    2   -0.000660   -0.000000
   -3   -6    0    3    2    0.001804   -0.000364
   -3   -6    0    4    2    0.000000    0.000000
   -3   -6    0    5    2   -0.000000    0.000000
   -3   -6    0    1    3    0.000233    0.000017
   -3   -6    0    2    3    0.000086    0.000017
   -3   -6    0    3    3    0.001087    0.000000
   -3   -6    0    4    3   -0.000000    0.000000
   -3   -6    0    5    3   -0.000000    0.000000
   -3   -6    0    1    4   -0.000000    0.000000
   -3   -6    0    2    4   -0.000000    0.000000
   -3   -6    0    3    4   -0.000000   -0.000000
   -3   -6    0    4    4   -0.000233    0.000000
   -3   -6    0    5    4   -0.000186   -0.000000
   -3   -6    0    1    5    0.000000   -0.000000
   -3   -6    0    2    5    0.000000    0.000000
   -3   -6    0    3    5    0.000000    0.000000
   -3   -6    0    4    5   -0.000163    0.000000
   -3   -6    0    5    5   -0.000455   -0.000000
   -3   -5    0    1    1   -0.001406    0.000000
   -3   -5    0    2    1   -0.000122   -0.000016
   -3   -5    0    3    1   -0.002042    0.000146
   -3   -5    0    4    1   -0.000000   -0.000000
   -3   -5    0    5    1   -0.000000    0.000000
   -3   -5    0    1    2   -0.006681    0.000860
   -3   -5    0    2    2   -0.002052    0.000000
   -3   -5    0    3    2   -0.001421    0.000287
   -3   -5    0    4    2   -0.000000    0.000000
   -3   -5    0    5    2    0.000000   -0.000000
   -3   -5    0    1    3   -0.002898   -0.000207
   -3   -5    0    2    3    0.000228    0.000046
   -3   -5    0    3    3    0.000063   -0.000000
   -3   -5    0    4    3   -0.000000    0.000000
   -3   -5    0    5    3   -0.000000   -0.000000
   -3   -5    0    1    4   -0.000000    0.000000
   -3   -5    0    2    4   -0.000000    0.000000
   -3   -5    0    3    4   -0.000000    0.000000
   -3   -5    0    4    4    0.000545   -0.000000
   -3   -5    0    5    4   -0.000114   -0.000000
   -3   -5    0    1    5   -0.000000    0.000000
   -3   -5    0    2    5    0.000000    0.000000
   -3   -5    0    3    5   -0.000000   -0.000000
   -3   -5    0    4    5    0.001444   -0.000002
   -3   -5    0    5    5   -0.000549    0.000000
   -3   -4    0    1    1    0.010539   -0.000000
   -3   -4    0    2    1    0.000614    0.000079
   -3   -4    0    3    1    0.000325   -0.000023
   -3   -4    0    4    1    0.000000   -0.000000
   -3   -4    0    5    1    0.000000   -0.000000
   -3   -4    0    1    2    0.013303   -0.001713
   -3   -4    0    2    2   -0.005694    0.000000
   -3   -4    0    3    2   -0.021351    0.004313
   -3   -4    0    4    2    0.000000   -0.000000
   -3   -4    0    5    2   -0.000000    0.000000
   -3   -4    0    1    3    0.009084    0.000648
   -3   -4    0    2    3   -0.000767   -0.000155
   -3   -4    0    3    3    0.001827    0.000000
   -3   -4    0    4    3   -0.000000    0.000000
   -3   -4    0    5    3   -0.000000    0.000000
   -3   -4    0    1    4    0.000000   -0.000000
   -3   -4    0    2    4   -0.000000    0.000000
   -3   -4    0    3    4    0.000000   -0.000000
   -3   -4    0    4    4   -0.000903    0.000000
   -3   -4    0    5    4   -0.000487   -0.000001
   -3   -4    0    1    5    0.000000   -0.000000
   -3   -4    0    2    5    0.000000   -0.000000
   -3   -4    0    3    5    0.000000   -0.000000
   -3   -4    0    4    5   -0.000884    0.000001
   -3   -4    0    5    5   -0.001153   -0.000000
   -3   -3    0    1    1   -0.024997    0.000000
   -3   -3    0    2    1    0.006675    0.000860
   -3   -3    0    3    1    0.013400   -0.000957
   -3   -3    0    4    1   -0.000000    0.000000
   -3   -3    0    5    1   -0.000000    0.000000
   -3   -3    0    1    2    0.030575   -0.003938
   -3   -3    0    2    2    0.003150   -0.000000
   -3   -3    0    3    2   -0.002264    0.000457
   -3   -3    0    4    2    0.000000    0.000000
   -3   -3    0    5    2   -0.000000    0.000000
   -3   -3    0    1    3   -0.012286   -0.000877
   -3   -3    0    2    3    0.002121    0.000429
   -3   -3    0    3    3    0.003155   -0.000000
   -3   -3    0    4    3   -0.000000    0.000000
   -3   -3    0    5    3   -0.000000    0.000000
   -3   -3    0    1    4   -0.000000    0.000000
   -3   -3    0    2    4   -0.000000    0.000000
   -3   -3    0    3    4    0.000000   -0.000000
   -3   -3    0    4    4    0.021576   -0.000000
   -3   -3    0    5    4   -0.001495   -0.000003
   -3   -3    0    1    5   -0.000000   -0.000000
   -3   -3    0    2    5    0.000000    0.000000
   -3   -3    0    3    5    0.000000    0.000000
   -3   -3    0    4    5    0.044585   -0.000075
   -3   -3    0    5    5   -0.000449    0.000000
   -3   -2    0    1    1    0.003905    0.000000
   -3   -2    0    2    1   -0.012229   -0.001575
   -3   -2    0    3    1   -0.006002    0.000428
   -3   -2    0    4    1    0.000000   -0.000000
   -3   -2    0    5    1    0.000000   -0.000000
   -3   -2    0    1    2   -0.002237    0.000288
   -3   -2    0    2    2   -0.003006   -0.000000
   -3   -2    0    3    2    0.030225   -0.006106
   -3   -2    0    4    2    0.000000   -0.000000
   -3   -2    0    5    2    0.000000   -0.000000
   -3   -2    0    1    3   -0.004972   -0.000355
   -3   -2    0    2    3   -0.009713   -0.001962
   -3   -2    0    3    3   -0.006288    0.000000
   -3   -2    0    4    3    0.000000   -0.000000
   -3   -2    0    5    3    0.000000   -0.000000
   -3   -2    0    1    4    0.000000   -0.000000
   -3   -2    0    2    4   -0.000001    0.000000
   -3   -2    0    3    4   -0.000000    0.000000
   -3   -2    0    4    4    0.000422    0.000000
   -3   -2    0    5    4   -0.000920   -0.000002
   -3   -2    0    1    5   -0.000000    0.000000
   -3   -2    0    2    5   -0.000000   -0.000000
   -3   -2    0    3    5    0.000000   -0.000000
   -3   -2    0    4    5   -0.011069    0.000019
   -3   -2    0    5    5   -0.000059   -0.000000
   -3   -1    0    1    1   -0.006310   -0.000000
   -3   -1    0    2    1    0.022506    0.002898
   -3   -1    0    3    1   -0.004945    0.000353
   -3   -1    0    4    1    0.000000    0.000000
   -3   -1    0    5    1   -0.000000    0.000000
   -3   -1    0    1    2   -0.021574    0.002778
   -3   -1    0    2    2   -0.002975   -0.000000
   -3   -1    0    3    2    0.013178   -0.002662
   -3   -1    0    4    2   -0.000000    0.000000
   -3   -1    0    5    2   -0.000000    0.000000
   -3   -1    0    1    3   -0.005979   -0.000427
   -3   -1    0    2    3   -0.000592   -0.000120
   -3   -1    0    3    3    0.003896    0.000000
   -3   -1    0    4    3   -0.000000   -0.000000
   -3   -1    0    5    3   -0.000000    0.000000
   -3   -1    0    1    4    0.000000   -0.000000
   -3   -1    0    2    4   -0.000001    0.000000
   -3   -1    0    3    4   -0.000000    0.000000
   -3   -1    0    4    4   -0.000263    0.000000
   -3   -1    0    5    4    0.000883    0.000001
   -3   -1    0    1    5   -0.000000    0.000000
   -3   -1    0    2    5    0.000000   -0.000000
   -3   -1    0    3    5   -0.000000   -0.000000
   -3   -1    0    4    5    0.010943   -0.000018
   -3   -1    0    5    5    0.000626   -0.000000
   -3    0    0    1    1    0.003140    0.000000
   -3    0    0    2    1   -0.000564   -0.000073
   -3    0    0    3    1   -0.012320    0.000879
   -3    0    0    4    1    0.000000   -0.000000
   -3    0    0    5    1    0.000000   -0.000000
   -3    0    0    1    2   -0.001452    0.000187
   -3    0    0    2    2    0.003169    0.000000
   -3    0    0    3    2   -0.006597    0.001333
   -3    0    0    4    2    0.000000   -0.000000
   -3    0    0    5    2    0.000000    0.000000
   -3    0    0    1    3    0.013361    0.000954
   -3    0    0    2    3    0.022250    0.004495
   -3    0    0    3    3   -0.025002   -0.000000
   -3    0    0    4    3    0.000000   -0.000000
   -3    0    0    5    3    0.000000   -0.000000
   -3    0    0    1    4   -0.000000   -0.000000
   -3    0    0    2    4   -0.000000   -0.000000
   -3    0    0    3    4    0.000000   -0.000000
   -3    0    0    4    4    0.023878   -0.000000
   -3    0    0    5    4    0.002851    0.000005
   -3    0    0    1    5    0.000000    0.000000
   -3    0    0    2    5    0.000000   -0.000000
   -3    0    0    3    5   -0.000000   -0.000000
   -3    0    0    4    5   -0.043125    0.000072
   -3    0    0    5    5   -0.002751    0.000000
   -3    1    0    1    1    0.001843   -0.000000
   -3    1    0    2    1   -0.009855   -0.001269
   -3    1    0    3    1    0.009094   -0.000649
   -3    1    0    4    1   -0.000000    0.000000
   -3    1    0    5    1    0.000000   -0.000000
   -3    1    0    1    2    0.001825   -0.000235
   -3    1    0    2    2   -0.005695    0.000000
   -3    1    0    3    2    0.000869   -0.000176
   -3    1    0    4    2   -0.000000    0.000000
   -3    1    0    5    2    0.000000   -0.000000
   -3    1    0    1    3    0.000343    0.000025
   -3    1    0    2    3   -0.012091   -0.002443
   -3    1    0    3    3    0.010524    0.000000
   -3    1    0    4    3   -0.000000    0.000000
   -3    1    0    5    3   -0.000000    0.000000
   -3    1    0    1    4    0.000000    0.000000
   -3    1    0    2    4   -0.000000   -0.000000
   -3    1    0    3    4    0.000000    0.000000
   -3    1    0    4    4   -0.001005    0.000000
   -3    1    0    5    4    0.000482    0.000001
   -3    1    0    1    5    0.000000    0.000000
   -3    1    0    2    5   -0.000000   -0.000000
   -3    1    0    3    5    0.000000    0.000000
   -3    1    0    4    5    0.000922   -0.000002
   -3    1    0    5    5   -0.001051   -0.000000
   -3    2    0    1    1    0.000056    0.000000
   -3    2    0    2    1    0.002159    0.000278
   -3    2    0    3    1   -0.002900    0.000207
   -3    2    0    4    1    0.000000   -0.000000
   -3    2    0    5    1    0.000000   -0.000000
   -3    2    0    1    2   -0.000436    0.000056
   -3    2    0    2    2   -0.002052   -0.000000
   -3    2    0    3    2   -0.000120    0.000024
   -3    2    0    4    2   -0.000000    0.000000
   -3    2    0    5    2    0.000000    0.000000
   -3    2    0    1    3   -0.002045   -0.000146
   -3    2    0    2    3    0.006603    0.001334
   -3    2    0    3    3   -0.001399   -0.000000
   -3    2    0    4    3    0.000000    0.000000
   -3    2    0    5    3   -0.000000   -0.000000
   -3    2    0    1    4    0.000000   -0.000000
   -3    2    0    2    4   -0.000000   -0.000000
   -3    2    0    3    4   -0.000000   -0.000000
   -3    2    0    4    4    0.000613   -0.000000
   -3    2    0    5    4    0.000176    0.000000
   -3    2    0    1    5   -0.000000    0.000000
   -3    2    0    2    5    0.000000    0.000000
   -3    2    0    3    5   -0.000000   -0.000000
   -3    2    0    4    5   -0.001379    0.000002
   -3    2    0    5    5   -0.000616    0.000000
   -3    3    0    1    1    0.001087    0.000000
   -3    3    0    2    1   -0.000778   -0.000100
   -3    3    0    3    1    0.000230   -0.000016
   -3    3    0    4    1    0.000000   -0.000000
   -3    3    0    5    1    0.000000   -0.000000
   -3    3    0    1    2    0.000766   -0.000099
   -3    3    0    2    2   -0.000660   -0.000000
   -3    3    0    3    2   -0.000409    0.000083
   -3    3    0    4    2    0.000000    0.000000
   -3    3    0    5    2    0.000000   -0.000000
   -3    3    0    1    3   -0.000439   -0.000031
   -3    3    0    2    3    0.000609    0.000123
   -3    3    0    3    3   -0.000660    0.000000
   -3    3    0    4    3   -0.000000    0.000000
   -3    3    0    5    3    0.000000    0.000000
   -3    3    0    1    4   -0.000000   -0.000000
   -3    3    0    2    4   -0.000000    0.000000
   -3    3    0    3    4   -0.000000   -0.000000
   -3    3    0    4    4   -0.000253    0.000000
   -3    3    0    5    4    0.000196    0.000000
   -3    3    0    1    5    0.000000   -0.000000
   -3    3    0    2    5    0.000000    0.000000
   -3    3    0    3    5   -0.000000   -0.000000
   -3    3    0    4    5    0.000176   -0.000000
   -3    3    0    5    5   -0.000436   -0.000000
   -3    4    0    1    1   -0.000345    0.000000
   -3    4    0    2    1    0.000229    0.000030
   -3    4    0    3    1   -0.000105    0.000007
   -3    4    0    4    1   -0.000000    0.000000
   -3    4    0    5    1   -0.000000   -0.000000
   -3    4    0    1    2   -0.000414    0.000053
   -3    4    0    2    2   -0.000922   -0.000000
   -3    4    0    3    2    0.000758   -0.000153
   -3    4    0    4    2   -0.000000   -0.000000
   -3    4    0    5    2    0.000000   -0.000000
   -3    4    0    1    3    0.000061    0.000004
   -3    4    0    2    3   -0.000120   -0.000024
   -3    4    0    3    3    0.001228    0.000000
   -3    4    0    4    3    0.000000   -0.000000
   -3    4    0    5    3   -0.000000    0.000000
   -3    4    0    1    4   -0.000000    0.000000
   -3    4    0    2    4   -0.000000    0.000000
   -3    4    0    3    4   -0.000000    0.000000
   -3    4    0    4    4   -0.000061   -0.000000
   -3    4    0    5    4   -0.000007   -0.000000
   -3    4    0    1    5   -0.000000   -0.000000
   -3    4    0    2    5    0.000000    0.000000
   -3    4    0    3    5    0.000000    0.000000
   -3    4    0    4    5    0.000028   -0.000000
   -3    4    0    5    5   -0.000071    0.000000
   -2   -7    0    1    1   -0.000412    0.000000
   -2   -7    0    2    1   -0.001419   -0.000183
   -2   -7    0    3    1   -0.000488    0.000035
   -2   -7    0    4    1    0.000000   -0.000000
   -2   -7    0    5    1   -0.000000    0.000000
   -2   -7    0    1    2   -0.001179    0.000152
   -2   -7    0    2    2   -0.001509   -0.000000
   -2   -7    0    3    2   -0.001583    0.000320
   -2   -7    0    4    2   -0.000000    0.000000
   -2   -7    0    5    2    0.000000   -0.000000
   -2   -7    0    1    3   -0.000488   -0.000035
   -2   -7    0    2    3    0.000843    0.000170
   -2   -7    0    3    3   -0.000410    0.000000
   -2   -7    0    4    3   -0.000000    0.000000
   -2   -7    0    5    3   -0.000000    0.000000
   -2   -7    0    1    4    0.000000   -0.000000
   -2   -7    0    2    4   -0.000000   -0.000000
   -2   -7    0    3    4   -0.000000    0.000000
   -2   -7    0    4    4   -0.000141    0.000000
   -2   -7    0    5    4   -0.000016   -0.000000
   -2   -7    0    1    5   -0.000000   -0.000000
   -2   -7    0    2    5    0.000000    0.000000
   -2   -7    0    3    5    0.000000   -0.000000
   -2   -7    0    4    5   -0.000015    0.000000
   -2   -7    0    5    5    0.000445   -0.000000
   -2   -6    0    1    1    0.001776   -0.000000
   -2   -6    0    2    1   -0.000041   -0.000005
   -2   -6    0    3    1    0.000268   -0.000019
   -2   -6    0    4    1    0.000000   -0.000000
   -2   -6    0    5    1   -0.000000    0.000000
   -2   -6    0    1    2    0.000614   -0.000079
   -2   -6    0    2    2   -0.001676   -0.000000
   -2   -6    0    3    2   -0.002010    0.000406
   -2   -6    0    4    2   -0.000000    0.000000
   -2   -6    0    5    2    0.000000   -0.000000
   -2   -6    0    1    3   -0.000260   -0.000019
   -2   -6    0    2    3   -0.000040   -0.000008
   -2   -6    0    3    3   -0.000210    0.000000
   -2   -6    0    4    3   -0.000000   -0.000000
   -2   -6    0    5    3    0.000000   -0.000000
   -2   -6    0    1    4    0.000000   -0.000000
   -2   -6    0    2    4    0.000000    0.000000
   -2   -6    0    3    4    0.000000    0.000000
   -2   -6    0    4    4   -0.000216   -0.000000
   -2   -6    0    5    4    0.000292    0.000000
   -2   -6    0    1    5    0.000000    0.000000
   -2   -6    0    2    5    0.000000    0.000000
   -2   -6    0    3    5    0.000000    0.000000
   -2   -6    0    4    5   -0.000333    0.000001
   -2   -6    0    5    5    0.000559    0.000000
   -2   -5    0    1    1   -0.002050   -0.000000
   -2   -5    0    2    1    0.000849    0.000109
   -2   -5    0    3    1    0.001836   -0.000131
   -2   -5    0    4    1    0.000000   -0.000000
   -2   -5    0    5    1   -0.000000    0.000000
   -2   -5    0    1    2    0.006650   -0.000856
   -2   -5    0    2    2   -0.001404   -0.000000
   -2   -5    0    3    2   -0.003842    0.000776
   -2   -5    0    4    2    0.000000   -0.000000
   -2   -5    0    5    2    0.000000   -0.000000
   -2   -5    0    1    3   -0.000780   -0.000056
   -2   -5    0    2    3   -0.001403   -0.000283
   -2   -5    0    3    3    0.000059    0.000000
   -2   -5    0    4    3   -0.000000    0.000000
   -2   -5    0    5    3    0.000000   -0.000000
   -2   -5    0    1    4    0.000000   -0.000000
   -2   -5    0    2    4    0.000000    0.000000
   -2   -5    0    3    4   -0.000000    0.000000
   -2   -5    0    4    4   -0.000843    0.000000
   -2   -5    0    5    4    0.000554    0.000001
   -2   -5    0    1    5   -0.000000   -0.000000
   -2   -5    0    2    5    0.000000    0.000000
   -2   -5    0    3    5    0.000000    0.000000
   -2   -5    0    4    5   -0.001008    0.000002
   -2   -5    0    5    5    0.000839   -0.000000
   -2   -4    0    1    1    0.000673   -0.000000
   -2   -4    0    2    1    0.000877    0.000113
   -2   -4    0    3    1   -0.003915    0.000279
   -2   -4    0    4    1    0.000000   -0.000000
   -2   -4    0    5    1   -0.000000    0.000000
   -2   -4    0    1    2   -0.005963    0.000768
   -2   -4    0    2    2    0.000668   -0.000000
   -2   -4    0    3    2   -0.002248    0.000454
   -2   -4    0    4    2   -0.000000    0.000000
   -2   -4    0    5    2   -0.000000    0.000000
   -2   -4    0    1    3   -0.005547   -0.000396
   -2   -4    0    2    3   -0.002849   -0.000576
   -2   -4    0    3    3   -0.006537    0.000000
   -2   -4    0    4    3   -0.000000    0.000000
   -2   -4    0    5    3    0.000000   -0.000000
   -2   -4    0    1    4    0.000000   -0.000000
   -2   -4    0    2    4    0.000000   -0.000000
   -2   -4    0    3    4    0.000000    0.000000
   -2   -4    0    4    4   -0.000086   -0.000000
   -2   -4    0    5    4    0.000829    0.000001
   -2   -4    0    1    5   -0.000000   -0.000000
   -2   -4    0    2    5   -0.000000    0.000000
   -2   -4    0    3    5    0.000000   -0.000000
   -2   -4    0    4    5    0.000767   -0.000001
   -2   -4    0    5    5    0.001008    0.000000
   -2   -3    0    1    1    0.003931   -0.000000
   -2   -3    0    2    1    0.006649    0.000856
   -2   -3    0    3    1    0.030750   -0.002195
   -2   -3    0    4    1   -0.000000    0.000000
   -2   -3    0    5    1    0.000000   -0.000000
   -2   -3    0    1    2   -0.011178    0.001440
   -2   -3    0    2    2   -0.006293   -0.000000
   -2   -3    0    3    2   -0.029935    0.006048
   -2   -3    0    4    2    0.000002   -0.000001
   -2   -3    0    5    2   -0.000001    0.000000
   -2   -3    0    1    3    0.022633    0.001616
   -2   -3    0    2    3   -0.005445   -0.001100
   -2   -3    0    3    3   -0.003027    0.000000
   -2   -3    0    4    3    0.000000   -0.000000
   -2   -3    0    5    3   -0.000000    0.000000
   -2   -3    0    1    4    0.000001   -0.000000
   -2   -3    0    2    4   -0.000000    0.000000
   -2   -3    0    3    4   -0.000000    0.000000
   -2   -3    0    4    4   -0.005851    0.000000
   -2   -3    0    5    4    0.002053    0.000003
   -2   -3    0    1    5    0.000000    0.000000
   -2   -3    0    2    5   -0.000000    0.000000
   -2   -3    0    3    5    0.000000   -0.000000
   -2   -3    0    4    5   -0.009747    0.000016
   -2   -3    0    5    5    0.006213   -0.000000
   -2   -2    0    1    1    0.018055    0.000000
   -2   -2    0    2    1   -0.004937   -0.000636
   -2   -2    0    3    1   -0.011223    0.000801
   -2   -2    0    4    1   -0.000001    0.000000
   -2   -2    0    5    1   -0.000000    0.000000
   -2   -2    0    1    2   -0.050235    0.006469
   -2   -2    0    2    2    0.038580   -0.000000
   -2   -2    0    3    2   -0.049611    0.010023
   -2   -2    0    4    2    0.000000   -0.000000
   -2   -2    0    5    2   -0.000001    0.000000
   -2   -2    0    1    3   -0.012087   -0.000863
   -2   -2    0    2    3   -0.000581   -0.000117
   -2   -2    0    3    3    0.038602    0.000000
   -2   -2    0    4    3   -0.000000    0.000000
   -2   -2    0    5    3    0.000002   -0.000000
   -2   -2    0    1    4   -0.000001    0.000000
   -2   -2    0    2    4    0.000001   -0.000000
   -2   -2    0    3    4    0.000000   -0.000000
   -2   -2    0    4    4    0.086097    0.000000
   -2   -2    0    5    4   -0.012681   -0.000021
   -2   -2    0    1    5   -0.000000   -0.000000
   -2   -2    0    2    5    0.000000    0.000000
   -2   -2    0    3    5    0.000001    0.000000
   -2   -2    0    4    5    0.275077   -0.000462
   -2   -2    0    5    5   -0.047215   -0.000000
   -2   -1    0    1    1    0.038539   -0.000000
   -2   -1    0    2    1   -0.012049   -0.001552
   -2   -1    0    3    1   -0.007784    0.000556
   -2   -1    0    4    1    0.000000   -0.000000
   -2   -1    0    5    1    0.000000   -0.000000
   -2   -1    0    1    2   -0.030320    0.003905
   -2   -1    0    2    2    0.134001    0.000000
   -2   -1    0    3    2   -0.011002    0.002223
   -2   -1    0    4    2   -0.000002    0.000001
   -2   -1    0    5    2   -0.000001    0.000000
   -2   -1    0    1    3   -0.007745   -0.000553
   -2   -1    0    2    3   -0.050259   -0.010153
   -2   -1    0    3    3    0.038584   -0.000000
   -2   -1    0    4    3   -0.000000    0.000000
   -2   -1    0    5    3   -0.000001    0.000000
   -2   -1    0    1    4    0.000000    0.000000
   -2   -1    0    2    4    0.000002   -0.000001
   -2   -1    0    3    4    0.000000   -0.000000
   -2   -1    0    4    4   -0.068561   -0.000000
   -2   -1    0    5    4   -0.002781   -0.000005
   -2   -1    0    1    5    0.000000    0.000000
   -2   -1    0    2    5   -0.000001   -0.000000
   -2   -1    0    3    5    0.000000    0.000000
   -2   -1    0    4    5   -0.002936    0.000005
   -2   -1    0    5    5    0.028936    0.000000
   -2    0    0    1    1    0.038517    0.000000
   -2    0    0    2    1    0.026068    0.003357
   -2    0    0    3    1   -0.012092    0.000863
   -2    0    0    4    1    0.000001   -0.000000
   -2    0    0    5    1    0.000000    0.000000
   -2    0    0    1    2   -0.002270    0.000292
   -2    0    0    2    2    0.038611   -0.000000
   -2    0    0    3    2   -0.005899    0.001192
   -2    0    0    4    2    0.000000   -0.000000
   -2    0    0    5    2    0.000000   -0.000000
   -2    0    0    1    3   -0.011242   -0.000802
   -2    0    0    2    3    0.025667    0.005185
   -2    0    0    3    3    0.018110   -0.000000
   -2    0    0    4    3    0.000001   -0.000000
   -2    0    0    5    3    0.000001   -0.000000
   -2    0    0    1    4   -0.000000   -0.000000
   -2    0    0    2    4    0.000001   -0.000000
   -2    0    0    3    4    0.000000    0.000000
   -2    0    0    4    4    0.100225    0.000000
   -2    0    0    5    4    0.020892    0.000035
   -2    0    0    1    5    0.000001    0.000000
   -2    0    0    2    5   -0.000001   -0.000000
   -2    0    0    3    5   -0.000001   -0.000000
   -2    0    0    4    5   -0.266856    0.000449
   -2    0    0    5    5   -0.061343   -0.000000
   -2    1    0    1    1   -0.002937    0.000000
   -2    1    0    2    1   -0.050880   -0.006553
   -2    1    0    3    1    0.022640   -0.001616
   -2    1    0    4    1   -0.000000    0.000000
   -2    1    0    5    1    0.000000   -0.000000
   -2    1    0    1    2   -0.003875    0.000499
   -2    1    0    2    2   -0.006300    0.000000
   -2    1    0    3    2    0.006581   -0.001330
   -2    1    0    4    2   -0.000000    0.000000
   -2    1    0    5    2   -0.000000    0.000000
   -2    1    0    1    3    0.030752    0.002195
   -2    1    0    2    3   -0.011821   -0.002388
   -2    1    0    3    3    0.003847   -0.000000
   -2    1    0    4    3    0.000000   -0.000000
   -2    1    0    5    3    0.000000    0.000000
   -2    1    0    1    4   -0.000000   -0.000000
   -2    1    0    2    4    0.000000    0.000000
   -2    1    0    3    4    0.000000    0.000000
   -2    1    0    4    4   -0.006314    0.000000
   -2    1    0    5    4   -0.002773   -0.000005
   -2    1    0    1    5    0.000000   -0.000000
   -2    1    0    2    5   -0.000001   -0.000000
   -2    1    0    3    5    0.000000    0.000000
   -2    1    0    4    5    0.009137   -0.000015
   -2    1    0    5    5    0.006677   -0.000000
   -2    2    0    1    1   -0.006558   -0.000000
   -2    2    0    2    1   -0.000587   -0.000076
   -2    2    0    3    1   -0.005526    0.000394
   -2    2    0    4    1   -0.000000    0.000000
   -2    2    0    5    1   -0.000000    0.000000
   -2    2    0    1    2   -0.002032    0.000262
   -2    2    0    2    2    0.000680    0.000000
   -2    2    0    3    2    0.000610   -0.000123
   -2    2    0    4    2   -0.000000   -0.000000
   -2    2    0    5    2    0.000000   -0.000000
   -2    2    0    1    3   -0.003895   -0.000278
   -2    2    0    2    3   -0.004888   -0.000988
   -2    2    0    3    3    0.000682   -0.000000
   -2    2    0    4    3    0.000000    0.000000
   -2    2    0    5    3   -0.000000   -0.000000
   -2    2    0    1    4   -0.000000    0.000000
   -2    2    0    2    4    0.000000    0.000000
   -2    2    0    3    4    0.000000   -0.000000
   -2    2    0    4    4    0.000004   -0.000000
   -2    2    0    5    4   -0.000891   -0.000002
   -2    2    0    1    5    0.000000   -0.000000
   -2    2    0    2    5    0.000000    0.000000
   -2    2    0    3    5   -0.000000   -0.000000
   -2    2    0    4    5   -0.000838    0.000001
   -2    2    0    5    5    0.000918    0.000000
   -2    3    0    1    1    0.000058   -0.000000
   -2    3    0    2    1   -0.005496   -0.000708
   -2    3    0    3    1   -0.000783    0.000056
   -2    3    0    4    1   -0.000000    0.000000
   -2    3    0    5    1    0.000000    0.000000
   -2    3    0    1    2   -0.001604    0.000207
   -2    3    0    2    2   -0.001401   -0.000000
   -2    3    0    3    2   -0.001161    0.000235
   -2    3    0    4    2   -0.000000    0.000000
   -2    3    0    5    2    0.000000   -0.000000
   -2    3    0    1    3    0.001834    0.000131
   -2    3    0    2    3    0.006582    0.001330
   -2    3    0    3    3   -0.002052    0.000000
   -2    3    0    4    3    0.000000    0.000000
   -2    3    0    5    3   -0.000000    0.000000
   -2    3    0    1    4   -0.000000   -0.000000
   -2    3    0    2    4   -0.000000   -0.000000
   -2    3    0    3    4    0.000000    0.000000
   -2    3    0    4    4   -0.000860    0.000000
   -2    3    0    5    4   -0.000648   -0.000001
   -2    3    0    1    5    0.000000    0.000000
   -2    3    0    2    5    0.000000    0.000000
   -2    3    0    3    5   -0.000000   -0.000000
   -2    3    0    4    5    0.000910   -0.000002
   -2    3    0    5    5    0.000856   -0.000000
   -2    4    0    1    1   -0.000212    0.000000
   -2    4    0    2    1   -0.002882   -0.000371
   -2    4    0    3    1   -0.000256    0.000018
   -2    4    0    4    1    0.000000   -0.000000
   -2    4    0    5    1    0.000000    0.000000
   -2    4    0    1    2   -0.000336    0.000043
   -2    4    0    2    2   -0.001674   -0.000000
   -2    4    0    3    2   -0.000331    0.000067
   -2    4    0    4    2   -0.000000    0.000000
   -2    4    0    5    2    0.000000   -0.000000
   -2    4    0    1    3    0.000273    0.000019
   -2    4    0    2    3    0.000871    0.000176
   -2    4    0    3    3    0.001776   -0.000000
   -2    4    0    4    3    0.000000   -0.000000
   -2    4    0    5    3   -0.000000   -0.000000
   -2    4    0    1    4    0.000000    0.000000
   -2    4    0    2    4   -0.000000   -0.000000
   -2    4    0    3    4   -0.000000    0.000000
   -2    4    0    4    4   -0.000217    0.000000
   -2    4    0    5    4   -0.000334   -0.000001
   -2    4    0    1    5    0.000000    0.000000
   -2    4    0    2    5    0.000000    0.000000
   -2    4    0    3    5    0.000000    0.000000
   -2    4    0    4    5    0.000294   -0.000000
   -2    4    0    5    5    0.000560   -0.000000
   -2    5    0    1    1   -0.000412    0.000000
   -2    5    0    2    1   -0.001419   -0.000183
   -2    5    0    3    1   -0.000488    0.000035
   -2    5    0    4    1    0.000000   -0.000000
   -2    5    0    5    1   -0.000000    0.000000
   -2    5    0    1    2   -0.001179    0.000152
   -2    5    0    2    2   -0.001509   -0.000000
   -2    5    0    3    2   -0.001583    0.000320
   -2    5    0    4    2   -0.000000    0.000000
   -2    5    0    5    2    0.000000   -0.000000
   -2    5    0    1    3   -0.000488   -0.000035
   -2    5    0    2    3    0.000843    0.000170
   -2    5    0    3    3   -0.000410    0.000000
   -2    5    0    4    3   -0.000000    0.000000
   -2    5    0    5    3   -0.000000    0.000000
   -2    5    0    1    4    0.000000   -0.000000
   -2    5    0    2    4   -0.000000   -0.000000
   -2    5    0    3    4   -0.000000    0.000000
   -2    5    0    4    4   -0.000141    0.000000
   -2    5    0    5    4   -0.000016   -0.000000
   -2    5    0    1    5   -0.000000   -0.000000
   -2    5    0    2    5    0.000000    0.000000
   -2    5    0    3    5    0.000000   -0.000000
   -2    5    0    4    5   -0.000015    0.000000
   -2    5    0    5    5    0.000445   -0.000000
   -1   -6    0    1    1   -0.000929    0.000000
   -1   -6    0    2    1    0.001798    0.000232
   -1   -6    0    3    1    0.000243   -0.000017
   -1   -6    0    4    1   -0.000000    0.000000
   -1   -6    0    5    1   -0.000000    0.000000
   -1   -6    0    1    2    0.000113   -0.000015
   -1   -6    0    2    2    0.004789   -0.000000
   -1   -6    0    3    2    0.001680   -0.000339
   -1   -6    0    4    2   -0.000000   -0.000000
   -1   -6    0    5    2   -0.000000    0.000000
   -1   -6    0    1    3    0.001242    0.000089
   -1   -6    0    2    3    0.000064    0.000013
   -1   -6    0    3    3   -0.000556   -0.000000
   -1   -6    0    4    3    0.000000   -0.000000
   -1   -6    0    5    3   -0.000000    0.000000
   -1   -6    0    1    4   -0.000000    0.000000
   -1   -6    0    2    4   -0.000000    0.000000
   -1   -6    0    3    4    0.000000   -0.000000
   -1   -6    0    4    4    0.000209    0.000000
   -1   -6    0    5    4   -0.000074   -0.000000
   -1   -6    0    1    5   -0.000000   -0.000000
   -1   -6    0    2    5   -0.000000   -0.000000
   -1   -6    0    3    5   -0.000000    0.000000
   -1   -6    0    4    5    0.000139   -0.000000
   -1   -6    0    5    5   -0.000434   -0.000000
   -1   -5    0    1    1    0.000045   -0.000000
   -1   -5    0    2    1    0.000071    0.000009
   -1   -5    0    3    1    0.001690   -0.000121
   -1   -5    0    4    1   -0.000000   -0.000000
   -1   -5    0    5    1    0.000000   -0.000000
   -1   -5    0    1    2    0.006688   -0.000861
   -1   -5    0    2    2    0.005561   -0.000000
   -1   -5    0    3    2    0.000322   -0.000065
   -1   -5    0    4    2    0.000000   -0.000000
   -1   -5    0    5    2   -0.000000    0.000000
   -1   -5    0    1    3    0.001816    0.000130
   -1   -5    0    2    3    0.001774    0.000358
   -1   -5    0    3    3    0.001127    0.000000
   -1   -5    0    4    3    0.000000   -0.000000
   -1   -5    0    5    3   -0.000000    0.000000
   -1   -5    0    1    4   -0.000000    0.000000
   -1   -5    0    2    4   -0.000000   -0.000000
   -1   -5    0    3    4    0.000000   -0.000000
   -1   -5    0    4    4    0.000088    0.000000
   -1   -5    0    5    4   -0.000013   -0.000000
   -1   -5    0    1    5   -0.000000    0.000000
   -1   -5    0    2    5   -0.000000   -0.000000
   -1   -5    0    3    5   -0.000000    0.000000
   -1   -5    0    4    5   -0.000025    0.000000
   -1   -5    0    5    5   -0.000172   -0.000000
   -1   -4    0    1    1   -0.005694    0.000000
   -1   -4    0    2    1   -0.002109   -0.000272
   -1   -4    0    3    1   -0.001446    0.000103
   -1   -4    0    4    1   -0.000000    0.000000
   -1   -4    0    5    1    0.000000   -0.000000
   -1   -4    0    1    2   -0.004907    0.000632
   -1   -4    0    2    2    0.010532   -0.000000
   -1   -4    0    3    2    0.030227   -0.006106
   -1   -4    0    4    2   -0.000000    0.000000
   -1   -4    0    5    2   -0.000000    0.000000
   -1   -4    0    1    3    0.002178    0.000155
   -1   -4    0    2    3    0.003344    0.000676
   -1   -4    0    3    3    0.001833   -0.000000
   -1   -4    0    4    3   -0.000000    0.000000
   -1   -4    0    5    3   -0.000000   -0.000000
   -1   -4    0    1    4   -0.000000    0.000000
   -1   -4    0    2    4   -0.000000    0.000000
   -1   -4    0    3    4   -0.000000    0.000000
   -1   -4    0    4    4   -0.000402    0.000000
   -1   -4    0    5    4   -0.000655   -0.000001
   -1   -4    0    1    5   -0.000000    0.000000
   -1   -4    0    2    5   -0.000000   -0.000000
   -1   -4    0    3    5   -0.000000    0.000000
   -1   -4    0    4    5   -0.000099    0.000000
   -1   -4    0    5    5   -0.001654   -0.000000
   -1   -3    0    1    1   -0.006306   -0.000000
   -1   -3    0    2    1   -0.006659   -0.000858
   -1   -3    0    3    1   -0.002259    0.000161
   -1   -3    0    4    1   -0.000000    0.000000
   -1   -3    0    5    1    0.000000   -0.000000
   -1   -3    0    1    2   -0.007759    0.000999
   -1   -3    0    2    2    0.003900   -0.000000
   -1   -3    0    3    2   -0.049615    0.010023
   -1   -3    0    4    2   -0.000000    0.000000
   -1   -3    0    5    2   -0.000001    0.000000
   -1   -3    0    1    3   -0.000574   -0.000041
   -1   -3    0    2    3    0.008936    0.001805
   -1   -3    0    3    3   -0.002984    0.000000
   -1   -3    0    4    3    0.000000   -0.000000
   -1   -3    0    5    3   -0.000000    0.000000
   -1   -3    0    1    4   -0.000000   -0.000000
   -1   -3    0    2    4   -0.000000   -0.000000
   -1   -3    0    3    4    0.000000   -0.000000
   -1   -3    0    4    4    0.005905    0.000000
   -1   -3    0    5    4   -0.002102   -0.000004
   -1   -3    0    1    5    0.000000    0.000000
   -1   -3    0    2    5   -0.000000   -0.000000
   -1   -3    0    3    5   -0.000000   -0.000000
   -1   -3    0    4    5    0.009350   -0.000016
   -1   -3    0    5    5   -0.005543   -0.000000
   -1   -2    0    1    1    0.038533    0.000000
   -1   -2    0    2    1   -0.005938   -0.000765
   -1   -2    0    3    1   -0.050451    0.003601
   -1   -2    0    4    1    0.000000   -0.000000
   -1   -2    0    5    1    0.000000   -0.000000
   -1   -2    0    1    2    0.180502   -0.023247
   -1   -2    0    2    2    0.038571    0.000000
   -1   -2    0    3    2    0.046445   -0.009383
   -1   -2    0    4    2   -0.000000   -0.000000
   -1   -2    0    5    2   -0.000003    0.000001
   -1   -2    0    1    3    0.026244    0.001873
   -1   -2    0    2    3    0.022251    0.004495
   -1   -2    0    3    3    0.134019   -0.000000
   -1   -2    0    4    3   -0.000000    0.000000
   -1   -2    0    5    3    0.000000   -0.000000
   -1   -2    0    1    4    0.000001   -0.000000
   -1   -2    0    2    4   -0.000000    0.000000
   -1   -2    0    3    4    0.000000   -0.000000
   -1   -2    0    4    4    0.005891   -0.000000
   -1   -2    0    5    4   -0.041451   -0.000070
   -1   -2    0    1    5    0.000000    0.000000
   -1   -2    0    2    5    0.000000   -0.000000
   -1   -2    0    3    5    0.000001    0.000000
   -1   -2    0    4    5   -0.043312    0.000073
   -1   -2    0    5    5   -0.045516    0.000000
   -1   -1    0    1    1   -0.546797    0.000000
   -1   -1    0    2    1   -0.007699   -0.000991
   -1   -1    0    3    1    0.181918   -0.012984
   -1   -1    0    4    1   -0.000001    0.000000
   -1   -1    0    5    1    0.000004   -0.000000
   -1   -1    0    1    2    0.047411   -0.006106
   -1   -1    0    2    2    0.257529   -0.000001
   -1   -1    0    3    2    0.178141   -0.035990
   -1   -1    0    4    2    0.000000   -0.000000
   -1   -1    0    5    2   -0.000003    0.000001
   -1   -1    0    1    3   -0.459655   -0.032811
   -1   -1    0    2    3    0.025698    0.005191
   -1   -1    0    3    3    0.257659    0.000001
   -1   -1    0    4    3   -0.000002    0.000000
   -1   -1    0    5    3    0.000001    0.000000
   -1   -1    0    1    4    0.000001   -0.000000
   -1   -1    0    2    4   -0.000001    0.000000
   -1   -1    0    3    4   -0.000001   -0.000000
   -1   -1    0    4    4   -0.159518   -0.000000
   -1   -1    0    5    4    0.002686    0.000005
   -1   -1    0    1    5   -0.000003   -0.000000
   -1   -1    0    2    5   -0.000001   -0.000000
   -1   -1    0    3    5    0.000001    0.000000
   -1   -1    0    4    5   -0.067987    0.000114
   -1   -1    0    5    5   -0.128952    0.000000
   -1    0    0    1    1    0.257123    0.000001
   -1    0    0    2    1   -0.457406   -0.058907
   -1    0    0    3    1   -0.460877    0.032897
   -1    0    0    4    1    0.000002   -0.000000
   -1    0    0    5    1    0.000001   -0.000000
   -1    0    0    1    2   -0.050294    0.006477
   -1    0    0    2    2    0.257426   -0.000001
   -1    0    0    3    2   -0.007589    0.001533
[...]
    5    1    0    2    1   -0.002123   -0.000273
    5    1    0    3    1   -0.002121    0.000151
    5    1    0    4    1    0.000000    0.000000
    5    1    0    5    1   -0.000000    0.000000
    5    1    0    1    2   -0.000778    0.000100
    5    1    0    2    2    0.001130   -0.000000
    5    1    0    3    2   -0.002849    0.000575
    5    1    0    4    2    0.000000    0.000000
    5    1    0    5    2   -0.000000   -0.000000
    5    1    0    1    3    0.000115    0.000008
    5    1    0    2    3    0.000384    0.000078
    5    1    0    3    3    0.005561    0.000000
    5    1    0    4    3   -0.000000    0.000000
    5    1    0    5    3   -0.000000    0.000000
    5    1    0    1    4   -0.000000   -0.000000
    5    1    0    2    4   -0.000000   -0.000000
    5    1    0    3    4   -0.000000    0.000000
    5    1    0    4    4   -0.000133   -0.000000
    5    1    0    5    4   -0.000024   -0.000000
    5    1    0    1    5   -0.000000   -0.000000
    5    1    0    2    5   -0.000000   -0.000000
    5    1    0    3    5   -0.000000   -0.000000
    5    1    0    4    5    0.000092   -0.000000
    5    1    0    5    5    0.000049    0.000000
    5    2    0    1    1   -0.002049   -0.000000
    5    2    0    2    1    0.001680    0.000216
    5    2    0    3    1    0.000884   -0.000063
    5    2    0    4    1   -0.000000    0.000000
    5    2    0    5    1   -0.000000    0.000000
    5    2    0    1    2   -0.002883    0.000371
    5    2    0    2    2    0.000058    0.000000
    5    2    0    3    2   -0.000766    0.000155
    5    2    0    4    2    0.000000   -0.000000
    5    2    0    5    2    0.000000   -0.000000
    5    2    0    1    3    0.000619    0.000044
    5    2    0    2    3    0.001680    0.000339
    5    2    0    3    3   -0.001404   -0.000000
    5    2    0    4    3   -0.000000   -0.000000
    5    2    0    5    3    0.000000    0.000000
    5    2    0    1    4    0.000000    0.000000
    5    2    0    2    4    0.000000   -0.000000
    5    2    0    3    4   -0.000000   -0.000000
    5    2    0    4    4    0.000300   -0.000000
    5    2    0    5    4   -0.001620   -0.000003
    5    2    0    1    5    0.000000    0.000000
    5    2    0    2    5   -0.000000   -0.000000
    5    2    0    3    5    0.000000    0.000000
    5    2    0    4    5   -0.000038    0.000000
    5    2    0    5    5   -0.000304    0.000000
    5    3    0    1    1   -0.001404   -0.000000
    5    3    0    2    1    0.001825    0.000235
    5    3    0    3    1    0.000617   -0.000044
    5    3    0    4    1   -0.000000    0.000000
    5    3    0    5    1    0.000000    0.000000
    5    3    0    1    2    0.003382   -0.000436
    5    3    0    2    2    0.000062    0.000000
    5    3    0    3    2    0.001779   -0.000359
    5    3    0    4    2    0.000000    0.000000
    5    3    0    5    2   -0.000000   -0.000000
    5    3    0    1    3    0.000884    0.000063
    5    3    0    2    3   -0.002011   -0.000406
    5    3    0    3    3   -0.002053   -0.000000
    5    3    0    4    3   -0.000000   -0.000000
    5    3    0    5    3   -0.000000   -0.000000
    5    3    0    1    4   -0.000000   -0.000000
    5    3    0    2    4   -0.000000   -0.000000
    5    3    0    3    4    0.000000    0.000000
    5    3    0    4    4    0.000205   -0.000000
    5    3    0    5    4    0.001647    0.000003
    5    3    0    1    5    0.000000   -0.000000
    5    3    0    2    5   -0.000000   -0.000000
    5    3    0    3    5   -0.000000   -0.000000
    5    3    0    4    5    0.000066   -0.000000
    5    3    0    5    5   -0.000209    0.000000
    5    4    0    1    1    0.005560   -0.000000
    5    4    0    2    1   -0.002030   -0.000261
    5    4    0    3    1    0.000106   -0.000008
    5    4    0    4    1   -0.000000   -0.000000
    5    4    0    5    1    0.000000    0.000000
    5    4    0    1    2   -0.003385    0.000436
    5    4    0    2    2    0.001129   -0.000000
    5    4    0    3    2   -0.001726    0.000349
    5    4    0    4    2    0.000000    0.000000
    5    4    0    5    2    0.000000    0.000000
    5    4    0    1    3   -0.002130   -0.000152
    5    4    0    2    3    0.001805    0.000365
    5    4    0    3    3    0.000044    0.000000
    5    4    0    4    3   -0.000000    0.000000
    5    4    0    5    3   -0.000000    0.000000
    5    4    0    1    4    0.000000   -0.000000
    5    4    0    2    4    0.000000    0.000000
    5    4    0    3    4   -0.000000   -0.000000
    5    4    0    4    4   -0.000128   -0.000000
    5    4    0    5    4    0.000020    0.000000
    5    4    0    1    5    0.000000    0.000000
    5    4    0    2    5   -0.000000   -0.000000
    5    4    0    3    5   -0.000000   -0.000000
    5    4    0    4    5   -0.000103    0.000000
    5    4    0    5    5    0.000044    0.000000
    5    5    0    1    1   -0.007257    0.000000
    5    5    0    2    1    0.001701    0.000219
    5    5    0    3    1   -0.003400    0.000243
    5    5    0    4    1   -0.000000   -0.000000
    5    5    0    5    1   -0.000000    0.000000
    5    5    0    1    2    0.001805   -0.000233
    5    5    0    2    2    0.001814    0.000000
    5    5    0    3    2    0.001217   -0.000246
    5    5    0    4    2    0.000000    0.000000
    5    5    0    5    2    0.000000   -0.000000
    5    5    0    1    3    0.000394    0.000028
    5    5    0    2    3    0.001657    0.000335
    5    5    0    3    3    0.001816   -0.000000
    5    5    0    4    3    0.000000    0.000000
    5    5    0    5    3    0.000000   -0.000000
    5    5    0    1    4   -0.000000    0.000000
    5    5    0    2    4    0.000000   -0.000000
    5    5    0    3    4    0.000000    0.000000
    5    5    0    4    4    0.000954   -0.000000
    5    5    0    5    4    0.001500    0.000003
    5    5    0    1    5   -0.000000   -0.000000
    5    5    0    2    5    0.000000    0.000000
    5    5    0    3    5    0.000000   -0.000000
    5    5    0    4    5    0.000195   -0.000000
    5    5    0    5    5    0.000081    0.000000
    5    6    0    1    1    0.004793   -0.000000
    5    6    0    2    1    0.000387    0.000050
    5    6    0    3    1    0.001803   -0.000129
    5    6    0    4    1    0.000000    0.000000
    5    6    0    5    1    0.000000   -0.000000
    5    6    0    1    2   -0.000336    0.000043
    5    6    0    2    2   -0.000932   -0.000000
    5    6    0    3    2   -0.000479    0.000097
    5    6    0    4    2    0.000000    0.000000
    5    6    0    5    2   -0.000000    0.000000
    5    6    0    1    3    0.001597    0.000114
    5    6    0    2    3   -0.002098   -0.000424
    5    6    0    3    3   -0.000557    0.000000
    5    6    0    4    3    0.000000   -0.000000
    5    6    0    5    3   -0.000000    0.000000
    5    6    0    1    4    0.000000   -0.000000
    5    6    0    2    4    0.000000    0.000000
    5    6    0    3    4    0.000000    0.000000
    5    6    0    4    4   -0.000266    0.000000
    5    6    0    5    4   -0.000337   -0.000001
    5    6    0    1    5    0.000000    0.000000
    5    6    0    2    5    0.000000    0.000000
    5    6    0    3    5   -0.000000   -0.000000
    5    6    0    4    5   -0.000156    0.000000
    5    6    0    5    5    0.000041   -0.000000
    5    7    0    1    1   -0.001509    0.000000
    5    7    0    2    1    0.000065    0.000008
    5    7    0    3    1   -0.000041    0.000003
    5    7    0    4    1   -0.000000   -0.000000
    5    7    0    5    1   -0.000000    0.000000
    5    7    0    1    2    0.000766   -0.000099
    5    7    0    2    2   -0.000411   -0.000000
    5    7    0    3    2    0.000058   -0.000012
    5    7    0    4    2    0.000000    0.000000
    5    7    0    5    2    0.000000   -0.000000
    5    7    0    1    3   -0.000337   -0.000024
    5    7    0    2    3    0.000237    0.000048
    5    7    0    3    3   -0.000410   -0.000000
    5    7    0    4    3   -0.000000   -0.000000
    5    7    0    5    3    0.000000   -0.000000
    5    7    0    1    4   -0.000000   -0.000000
    5    7    0    2    4   -0.000000   -0.000000
    5    7    0    3    4    0.000000    0.000000
    5    7    0    4    4    0.000284    0.000000
    5    7    0    5    4    0.000249    0.000000
    5    7    0    1    5   -0.000000   -0.000000
    5    7    0    2    5    0.000000    0.000000
    5    7    0    3    5    0.000000    0.000000
    5    7    0    4    5    0.000239   -0.000000
    5    7    0    5    5    0.000020   -0.000000
    6    0    0    1    1    0.000402   -0.000000
    6    0    0    2    1    0.001235    0.000159
    6    0    0    3    1   -0.001022    0.000073
    6    0    0    4    1    0.000000   -0.000000
    6    0    0    5    1    0.000000   -0.000000
    6    0    0    1    2    0.001235   -0.000159
    6    0    0    2    2    0.000407   -0.000000
    6    0    0    3    2    0.001774   -0.000358
    6    0    0    4    2   -0.000000   -0.000000
    6    0    0    5    2    0.000000   -0.000000
    6    0    0    1    3   -0.001022   -0.000073
    6    0    0    2    3    0.001774    0.000358
    6    0    0    3    3   -0.006118    0.000000
    6    0    0    4    3    0.000000   -0.000000
    6    0    0    5    3    0.000000    0.000000
    6    0    0    1    4    0.000000    0.000000
    6    0    0    2    4   -0.000000    0.000000
    6    0    0    3    4    0.000000    0.000000
    6    0    0    4    4    0.000321    0.000000
    6    0    0    5    4   -0.000238   -0.000000
    6    0    0    1    5    0.000000    0.000000
    6    0    0    2    5    0.000000    0.000000
    6    0    0    3    5    0.000000   -0.000000
    6    0    0    4    5   -0.000238    0.000000
    6    0    0    5    5   -0.000000    0.000000
    6    1    0    1    1   -0.000929   -0.000000
    6    1    0    2    1   -0.001831   -0.000236
    6    1    0    3    1    0.000072   -0.000005
    6    1    0    4    1   -0.000000   -0.000000
    6    1    0    5    1   -0.000000    0.000000
    6    1    0    1    2   -0.000258    0.000033
    6    1    0    2    2   -0.000555   -0.000000
    6    1    0    3    2   -0.001402    0.000283
    6    1    0    4    2    0.000000   -0.000000
    6    1    0    5    2   -0.000000   -0.000000
    6    1    0    1    3    0.001822    0.000130
    6    1    0    2    3   -0.000997   -0.000201
    6    1    0    3    3    0.004788    0.000000
    6    1    0    4    3   -0.000000    0.000000
    6    1    0    5    3   -0.000000    0.000000
    6    1    0    1    4   -0.000000   -0.000000
    6    1    0    2    4   -0.000000    0.000000
    6    1    0    3    4   -0.000000    0.000000
    6    1    0    4    4   -0.000270    0.000000
    6    1    0    5    4    0.000323    0.000001
    6    1    0    1    5   -0.000000   -0.000000
    6    1    0    2    5   -0.000000   -0.000000
    6    1    0    3    5   -0.000000    0.000000
    6    1    0    4    5    0.000154   -0.000000
    6    1    0    5    5    0.000046   -0.000000
    6    2    0    1    1    0.001776   -0.000000
    6    2    0    2    1    0.000242    0.000031
    6    2    0    3    1    0.000854   -0.000061
    6    2    0    4    1    0.000000    0.000000
    6    2    0    5    1    0.000000   -0.000000
    6    2    0    1    2    0.000231   -0.000030
    6    2    0    2    2   -0.000211   -0.000000
    6    2    0    3    2    0.000227   -0.000046
    6    2    0    4    2   -0.000000   -0.000000
    6    2    0    5    2   -0.000000    0.000000
    6    2    0    1    3   -0.001187   -0.000085
    6    2    0    2    3    0.001573    0.000318
    6    2    0    3    3   -0.001675    0.000000
    6    2    0    4    3    0.000000   -0.000000
    6    2    0    5    3    0.000000   -0.000000
    6    2    0    1    4    0.000000    0.000000
    6    2    0    2    4   -0.000000   -0.000000
    6    2    0    3    4   -0.000000   -0.000000
    6    2    0    4    4    0.000374   -0.000000
    6    2    0    5    4   -0.000587   -0.000001
    6    2    0    1    5    0.000000    0.000000
    6    2    0    2    5    0.000000    0.000000
    6    2    0    3    5    0.000000    0.000000
    6    2    0    4    5   -0.000011    0.000000
    6    2    0    5    5   -0.000031    0.000000
    6    3    0    1    1   -0.000660   -0.000000
    6    3    0    2    1    0.000267    0.000034
    6    3    0    3    1   -0.000122    0.000009
    6    3    0    4    1   -0.000000    0.000000
    6    3    0    5    1    0.000000   -0.000000
    6    3    0    1    2   -0.001419    0.000183
    6    3    0    2    2    0.001087    0.000000
    6    3    0    3    2   -0.000251    0.000051
    6    3    0    4    2    0.000000    0.000000
    6    3    0    5    2   -0.000000   -0.000000
    6    3    0    1    3   -0.000122   -0.000009
    6    3    0    2    3   -0.001583   -0.000320
    6    3    0    3    3   -0.000660   -0.000000
    6    3    0    4    3   -0.000000   -0.000000
    6    3    0    5    3    0.000000   -0.000000
    6    3    0    1    4   -0.000000    0.000000
    6    3    0    2    4   -0.000000    0.000000
    6    3    0    3    4    0.000000   -0.000000
    6    3    0    4    4   -0.000548    0.000000
    6    3    0    5    4   -0.000010   -0.000000
    6    3    0    1    5   -0.000000    0.000000
    6    3    0    2    5    0.000000   -0.000000
    6    3    0    3    5   -0.000000   -0.000000
    6    3    0    4    5   -0.000013    0.000000
    6    3    0    5    5   -0.000141   -0.000000
    6    4    0    1    1   -0.001677   -0.000000
    6    4    0    2    1   -0.000435   -0.000056
    6    4    0    3    1   -0.001180    0.000084
    6    4    0    4    1   -0.000000   -0.000000
    6    4    0    5    1    0.000000   -0.000000
    6    4    0    1    2    0.001795   -0.000231
    6    4    0    2    2   -0.000209    0.000000
    6    4    0    3    2    0.001217   -0.000246
    6    4    0    4    2   -0.000000   -0.000000
    6    4    0    5    2    0.000000   -0.000000
    6    4    0    1    3    0.000859    0.000061
    6    4    0    2    3   -0.000430   -0.000087
    6    4    0    3    3    0.001776    0.000000
    6    4    0    4    3    0.000000    0.000000
    6    4    0    5    3    0.000000   -0.000000
    6    4    0    1    4   -0.000000    0.000000
    6    4    0    2    4   -0.000000    0.000000
    6    4    0    3    4   -0.000000    0.000000
    6    4    0    4    4    0.000336   -0.000000
    6    4    0    5    4    0.000604    0.000001
    6    4    0    1    5   -0.000000   -0.000000
    6    4    0    2    5   -0.000000   -0.000000
    6    4    0    3    5    0.000000   -0.000000
    6    4    0    4    5    0.000032   -0.000000
    6    4    0    5    5    0.000007    0.000000
    6    5    0    1    1    0.004792    0.000000
    6    5    0    2    1   -0.001602   -0.000206
    6    5    0    3    1    0.001813   -0.000129
    6    5    0    4    1    0.000000    0.000000
    6    5    0    5    1    0.000000   -0.000000
    6    5    0    1    2   -0.001009    0.000130
    6    5    0    2    2   -0.000556   -0.000000
    6    5    0    3    2   -0.001807    0.000365
    6    5    0    4    2   -0.000000   -0.000000
    6    5    0    5    2   -0.000000    0.000000
    6    5    0    1    3    0.000062    0.000004
    6    5    0    2    3    0.000267    0.000054
    6    5    0    3    3   -0.000933    0.000000
    6    5    0    4    3   -0.000000   -0.000000
    6    5    0    5    3   -0.000000    0.000000
    6    5    0    1    4    0.000000   -0.000000
    6    5    0    2    4   -0.000000    0.000000
    6    5    0    3    4    0.000000    0.000000
    6    5    0    4    4   -0.000240    0.000000
    6    5    0    5    4   -0.000335   -0.000001
    6    5    0    1    5    0.000000    0.000000
    6    5    0    2    5    0.000000    0.000000
    6    5    0    3    5    0.000000    0.000000
    6    5    0    4    5   -0.000170    0.000000
    6    5    0    5    5    0.000015   -0.000000
    6    6    0    1    1   -0.006122   -0.000000
    6    6    0    2    1    0.001590    0.000205
    6    6    0    3    1   -0.001012    0.000072
    6    6    0    4    1   -0.000000   -0.000000
    6    6    0    5    1   -0.000000    0.000000
    6    6    0    1    2    0.001590   -0.000205
    6    6    0    2    2    0.000406   -0.000000
    6    6    0    3    2    0.000236   -0.000048
    6    6    0    4    2   -0.000000    0.000000
    6    6    0    5    2    0.000000   -0.000000
    6    6    0    1    3   -0.001012   -0.000072
    6    6    0    2    3    0.000236    0.000048
    6    6    0    3    3    0.000407   -0.000000
    6    6    0    4    3   -0.000000    0.000000
    6    6    0    5    3    0.000000    0.000000
    6    6    0    1    4   -0.000000    0.000000
    6    6    0    2    4   -0.000000   -0.000000
    6    6    0    3    4   -0.000000   -0.000000
    6    6    0    4    4    0.000294   -0.000000
    6    6    0    5    4    0.000256    0.000000
    6    6    0    1    5   -0.000000   -0.000000
    6    6    0    2    5    0.000000    0.000000
    6    6    0    3    5    0.000000   -0.000000
    6    6    0    4    5    0.000256   -0.000000
    6    6    0    5    5    0.000027   -0.000000
    7    3    0    1    1    0.001228   -0.000000
    7    3    0    2    1   -0.000486   -0.000063
    7    3    0    3    1    0.000248   -0.000018
    7    3    0    4    1    0.000000   -0.000000
    7    3    0    5    1    0.000000   -0.000000
    7    3    0    1    2    0.000088   -0.000011
    7    3    0    2    2   -0.000345    0.000000
    7    3    0    3    2   -0.000104    0.000021
    7    3    0    4    2    0.000000    0.000000
    7    3    0    5    2    0.000000   -0.000000
    7    3    0    1    3   -0.000418   -0.000030
    7    3    0    2    3   -0.000331   -0.000067
    7    3    0    3    3   -0.000921   -0.000000
    7    3    0    4    3   -0.000000   -0.000000
    7    3    0    5    3   -0.000000    0.000000
    7    3    0    1    4    0.000000    0.000000
    7    3    0    2    4    0.000000   -0.000000
    7    3    0    3    4    0.000000    0.000000
    7    3    0    4    4   -0.000078    0.000000
    7    3    0    5    4   -0.000011   -0.000000
    7    3    0    1    5    0.000000    0.000000
    7    3    0    2    5    0.000000   -0.000000
    7    3    0    3    5   -0.000000   -0.000000
    7    3    0    4    5    0.000019   -0.000000
    7    3    0    5    5   -0.000054   -0.000000
    7    4    0    1    1   -0.000921   -0.000000
    7    4    0    2    1    0.000060    0.000008
    7    4    0    3    1   -0.000414    0.000030
    7    4    0    4    1   -0.000000   -0.000000
    7    4    0    5    1   -0.000000    0.000000
    7    4    0    1    2   -0.000041    0.000005
    7    4    0    2    2   -0.000346    0.000000
    7    4    0    3    2   -0.000479    0.000097
    7    4    0    4    2    0.000000   -0.000000
    7    4    0    5    2    0.000000    0.000000
    7    4    0    1    3    0.000252    0.000018
    7    4    0    2    3    0.000757    0.000153
    7    4    0    3    3    0.001228    0.000000
    7    4    0    4    3    0.000000    0.000000
    7    4    0    5    3   -0.000000   -0.000000
    7    4    0    1    4   -0.000000   -0.000000
    7    4    0    2    4    0.000000   -0.000000
    7    4    0    3    4   -0.000000   -0.000000
    7    4    0    4    4   -0.000078    0.000000
    7    4    0    5    4    0.000009    0.000000
    7    4    0    1    5    0.000000    0.000000
    7    4    0    2    5    0.000000   -0.000000
    7    4    0    3    5    0.000000    0.000000
    7    4    0    4    5   -0.000021    0.000000
    7    4    0    5    5   -0.000054   -0.000000
